LAMMPS (3 Mar 2020)
OMP_NUM_THREADS environment is not set. Defaulting to 1 thread. (src/comm.cpp:94)
  using 1 OpenMP thread(s) per MPI task
###################################################################
# System :
#  2 atoms in a box
# Simulation :
#  Shift atom2 from min_dist to boxsize-min_dist
#  * calculate the potential energy
#   * store the data in dump.lammpstrj.gz

variable boxsize equal 6.0
variable step_size equal 0.01
variable min_dist equal 0.4

units lj
timestep 0.005
atom_style full
atom_modify map array

region box block 0 ${boxsize} 0 ${boxsize} 0 ${boxsize}
region box block 0 6 0 ${boxsize} 0 ${boxsize}
region box block 0 6 0 6 0 ${boxsize}
region box block 0 6 0 6 0 6
create_box 1 box
Created orthogonal box = (0 0 0) to (6 6 6)
  1 by 1 by 1 MPI processor grid

create_atoms 1 single 0.0 0.0 0.0
Created 1 atoms
  create_atoms CPU = 5.88e-05 secs
create_atoms 1 single ${min_dist} 0.0 0.0
create_atoms 1 single 0.4 0.0 0.0
Created 1 atoms
  create_atoms CPU = 0.0044715 secs

mass 1 1.0

velocity all set 0 0 0

pair_style lj/cut 2.5
pair_coeff 1 1 1.0 1.0 2.5

neighbor 0.3 bin
neigh_modify delay 0 every 1 check no


# calculate number of loop steps and set up variable for the x position of atom2
variable loop_steps equal round((${boxsize}-2*${min_dist})/${step_size}) # spacer on both sides
variable loop_steps equal round((6-2*${min_dist})/${step_size}) 
variable loop_steps equal round((6-2*0.4)/${step_size}) 
variable loop_steps equal round((6-2*0.4)/0.01) 
variable i loop ${loop_steps}
variable i loop 520
variable x2 equal ${min_dist}+step*${step_size}
variable x2 equal 0.4+step*${step_size}
variable x2 equal 0.4+step*0.01


# thermo output
variable e2body    equal ebond+evdwl
variable ecoul_tot equal ecoul+elong
variable str_dbg string 'ebond eangle edihed eimp evdwl ecoul elong etail v_e2body v_ecoul_tot'
thermo_style custom step temp pe etotal press vol ${str_dbg}
thermo_style custom step temp pe etotal press vol ebond eangle edihed eimp evdwl ecoul elong etail v_e2body v_ecoul_tot

compute        peratom all pe/atom
compute        pe all reduce sum c_peratom
thermo_style   custom step temp etotal press pe c_pe


# compute the per atom properties
compute peatom all pe/atom
dump 1 all custom/gz 1 dump.lammpstrj.gz id type x y z fx fy fz c_peatom
dump_modify 1 format float "% 20.15f"

# create step 0
reset_timestep 0
set atom 2 x ${x2}
set atom 2 x 0.4
  1 settings made for x
run 0 pre yes post no # force neighborlist rebuild
WARNING: No fixes defined, atoms won't move (src/verlet.cpp:52)
Neighbor list info ...
  update every 1 steps, delay 0 steps, check no
  max neighbors/atom: 2000, page size: 100000
  master list distance cutoff = 2.8
  ghost atom cutoff = 2.8
  binsize = 1.4, bins = 5 5 5
  1 neighbor lists, perpetual/occasional/extra = 1 0 0
  (1) pair lj/cut, perpetual
      attributes: half, newton on
      pair build: half/bin/newton
      stencil: half/bin/3d/newton
      bin: standard
Per MPI rank memory allocation (min/avg/max) = 7.002 | 7.002 | 7.002 Mbytes
Step Temp TotEng Press PotEng c_pe 
       0            0    118721.01    4406.1166    118721.01    118721.01 
Loop time of 3.6e-06 on 1 procs for 0 steps with 2 atoms


# loop over the different positions
label loop

  reset_timestep $i
  reset_timestep 1
  set atom 2 x ${x2}
  set atom 2 x 0.41
  1 settings made for x
  run 0 pre yes post no # force neighborlist rebuild
WARNING: No fixes defined, atoms won't move (src/verlet.cpp:52)
Per MPI rank memory allocation (min/avg/max) = 7.127 | 7.127 | 7.127 Mbytes
Step Temp TotEng Press PotEng c_pe 
       1            0    88217.725    3275.1203    88217.725    88217.725 
Loop time of 2.3e-06 on 1 procs for 0 steps with 2 atoms


next i
jump SELF loop

  reset_timestep $i
  reset_timestep 2
  set atom 2 x ${x2}
  set atom 2 x 0.42
  1 settings made for x
  run 0 pre yes post no # force neighborlist rebuild
WARNING: No fixes defined, atoms won't move (src/verlet.cpp:52)
Per MPI rank memory allocation (min/avg/max) = 7.127 | 7.127 | 7.127 Mbytes
Step Temp TotEng Press PotEng c_pe 
       2            0     66015.83    2451.7782     66015.83     66015.83 
Loop time of 2.1e-06 on 1 procs for 0 steps with 2 atoms


next i
jump SELF loop

  reset_timestep $i
  reset_timestep 3
  set atom 2 x ${x2}
  set atom 2 x 0.43
  1 settings made for x
  run 0 pre yes post no # force neighborlist rebuild
WARNING: No fixes defined, atoms won't move (src/verlet.cpp:52)
Per MPI rank memory allocation (min/avg/max) = 7.127 | 7.127 | 7.127 Mbytes
Step Temp TotEng Press PotEng c_pe 
       3            0    49734.125    1847.8637    49734.125    49734.125 
Loop time of 2e-06 on 1 procs for 0 steps with 2 atoms


next i
jump SELF loop

  reset_timestep $i
  reset_timestep 4
  set atom 2 x ${x2}
  set atom 2 x 0.44
  1 settings made for x
  run 0 pre yes post no # force neighborlist rebuild
WARNING: No fixes defined, atoms won't move (src/verlet.cpp:52)
Per MPI rank memory allocation (min/avg/max) = 7.127 | 7.127 | 7.127 Mbytes
Step Temp TotEng Press PotEng c_pe 
       4            0    37708.131    1401.7016    37708.131    37708.131 
Loop time of 1.9e-06 on 1 procs for 0 steps with 2 atoms


next i
jump SELF loop

  reset_timestep $i
  reset_timestep 5
  set atom 2 x ${x2}
  set atom 2 x 0.45
  1 settings made for x
  run 0 pre yes post no # force neighborlist rebuild
WARNING: No fixes defined, atoms won't move (src/verlet.cpp:52)
Per MPI rank memory allocation (min/avg/max) = 7.127 | 7.127 | 7.127 Mbytes
Step Temp TotEng Press PotEng c_pe 
       5            0     28764.61    1069.8162     28764.61     28764.61 
Loop time of 2e-06 on 1 procs for 0 steps with 2 atoms


next i
jump SELF loop

  reset_timestep $i
  reset_timestep 6
  set atom 2 x ${x2}
  set atom 2 x 0.46
  1 settings made for x
  run 0 pre yes post no # force neighborlist rebuild
WARNING: No fixes defined, atoms won't move (src/verlet.cpp:52)
Per MPI rank memory allocation (min/avg/max) = 7.127 | 7.127 | 7.127 Mbytes
Step Temp TotEng Press PotEng c_pe 
       6            0    22069.971    821.31555    22069.971    22069.971 
Loop time of 2e-06 on 1 procs for 0 steps with 2 atoms


next i
jump SELF loop

  reset_timestep $i
  reset_timestep 7
  set atom 2 x ${x2}
  set atom 2 x 0.47
  1 settings made for x
  run 0 pre yes post no # force neighborlist rebuild
WARNING: No fixes defined, atoms won't move (src/verlet.cpp:52)
Per MPI rank memory allocation (min/avg/max) = 7.127 | 7.127 | 7.127 Mbytes
Step Temp TotEng Press PotEng c_pe 
       7            0    17027.423    634.08128    17027.423    17027.423 
Loop time of 2.2e-06 on 1 procs for 0 steps with 2 atoms


next i
jump SELF loop

  reset_timestep $i
  reset_timestep 8
  set atom 2 x ${x2}
  set atom 2 x 0.48
  1 settings made for x
  run 0 pre yes post no # force neighborlist rebuild
WARNING: No fixes defined, atoms won't move (src/verlet.cpp:52)
Per MPI rank memory allocation (min/avg/max) = 7.127 | 7.127 | 7.127 Mbytes
Step Temp TotEng Press PotEng c_pe 
       8            0    13206.591    492.16122    13206.591    13206.591 
Loop time of 1.9e-06 on 1 procs for 0 steps with 2 atoms


next i
jump SELF loop

  reset_timestep $i
  reset_timestep 9
  set atom 2 x ${x2}
  set atom 2 x 0.49
  1 settings made for x
  run 0 pre yes post no # force neighborlist rebuild
WARNING: No fixes defined, atoms won't move (src/verlet.cpp:52)
Per MPI rank memory allocation (min/avg/max) = 7.127 | 7.127 | 7.127 Mbytes
Step Temp TotEng Press PotEng c_pe 
       9            0    10294.941    383.96994    10294.941    10294.941 
Loop time of 2e-06 on 1 procs for 0 steps with 2 atoms


next i
jump SELF loop

  reset_timestep $i
  reset_timestep 10
  set atom 2 x ${x2}
  set atom 2 x 0.5
  1 settings made for x
  run 0 pre yes post no # force neighborlist rebuild
WARNING: No fixes defined, atoms won't move (src/verlet.cpp:52)
Per MPI rank memory allocation (min/avg/max) = 7.127 | 7.127 | 7.127 Mbytes
Step Temp TotEng Press PotEng c_pe 
      10            0         8064    301.03704         8064         8064 
Loop time of 2e-06 on 1 procs for 0 steps with 2 atoms


next i
jump SELF loop

  reset_timestep $i
  reset_timestep 11
  set atom 2 x ${x2}
  set atom 2 x 0.51
  1 settings made for x
  run 0 pre yes post no # force neighborlist rebuild
WARNING: No fixes defined, atoms won't move (src/verlet.cpp:52)
Per MPI rank memory allocation (min/avg/max) = 7.127 | 7.127 | 7.127 Mbytes
Step Temp TotEng Press PotEng c_pe 
      11            0    6345.6758    237.12985    6345.6758    6345.6758 
Loop time of 2e-06 on 1 procs for 0 steps with 2 atoms


next i
jump SELF loop

  reset_timestep $i
  reset_timestep 12
  set atom 2 x ${x2}
  set atom 2 x 0.52
  1 settings made for x
  run 0 pre yes post no # force neighborlist rebuild
WARNING: No fixes defined, atoms won't move (src/verlet.cpp:52)
Per MPI rank memory allocation (min/avg/max) = 7.127 | 7.127 | 7.127 Mbytes
Step Temp TotEng Press PotEng c_pe 
      12            0    5015.5388    187.63403    5015.5388    5015.5388 
Loop time of 2e-06 on 1 procs for 0 steps with 2 atoms


next i
jump SELF loop

  reset_timestep $i
  reset_timestep 13
  set atom 2 x ${x2}
  set atom 2 x 0.53
  1 settings made for x
  run 0 pre yes post no # force neighborlist rebuild
WARNING: No fixes defined, atoms won't move (src/verlet.cpp:52)
Per MPI rank memory allocation (min/avg/max) = 7.127 | 7.127 | 7.127 Mbytes
Step Temp TotEng Press PotEng c_pe 
      13            0    3980.9381    149.11317    3980.9381    3980.9381 
Loop time of 2e-06 on 1 procs for 0 steps with 2 atoms


next i
jump SELF loop

  reset_timestep $i
  reset_timestep 14
  set atom 2 x ${x2}
  set atom 2 x 0.54
  1 settings made for x
  run 0 pre yes post no # force neighborlist rebuild
WARNING: No fixes defined, atoms won't move (src/verlet.cpp:52)
Per MPI rank memory allocation (min/avg/max) = 7.127 | 7.127 | 7.127 Mbytes
Step Temp TotEng Press PotEng c_pe 
      14            0    3172.4942    118.99352    3172.4942    3172.4942 
Loop time of 2.5e-06 on 1 procs for 0 steps with 2 atoms


next i
jump SELF loop

  reset_timestep $i
  reset_timestep 15
  set atom 2 x ${x2}
  set atom 2 x 0.55
  1 settings made for x
  run 0 pre yes post no # force neighborlist rebuild
WARNING: No fixes defined, atoms won't move (src/verlet.cpp:52)
Per MPI rank memory allocation (min/avg/max) = 7.127 | 7.127 | 7.127 Mbytes
Step Temp TotEng Press PotEng c_pe 
      15            0     2537.971    95.336938     2537.971     2537.971 
Loop time of 2.2e-06 on 1 procs for 0 steps with 2 atoms


next i
jump SELF loop

  reset_timestep $i
  reset_timestep 16
  set atom 2 x ${x2}
  set atom 2 x 0.56
  1 settings made for x
  run 0 pre yes post no # force neighborlist rebuild
WARNING: No fixes defined, atoms won't move (src/verlet.cpp:52)
Per MPI rank memory allocation (min/avg/max) = 7.127 | 7.127 | 7.127 Mbytes
Step Temp TotEng Press PotEng c_pe 
      16            0    2037.8336    76.676221    2037.8336    2037.8336 
Loop time of 2e-06 on 1 procs for 0 steps with 2 atoms


next i
jump SELF loop

  reset_timestep $i
  reset_timestep 17
  set atom 2 x ${x2}
  set atom 2 x 0.57
  1 settings made for x
  run 0 pre yes post no # force neighborlist rebuild
WARNING: No fixes defined, atoms won't move (src/verlet.cpp:52)
Per MPI rank memory allocation (min/avg/max) = 7.127 | 7.127 | 7.127 Mbytes
Step Temp TotEng Press PotEng c_pe 
      17            0    1642.0091     61.89506    1642.0091    1642.0091 
Loop time of 2e-06 on 1 procs for 0 steps with 2 atoms


next i
jump SELF loop

  reset_timestep $i
  reset_timestep 18
  set atom 2 x ${x2}
  set atom 2 x 0.58
  1 settings made for x
  run 0 pre yes post no # force neighborlist rebuild
WARNING: No fixes defined, atoms won't move (src/verlet.cpp:52)
Per MPI rank memory allocation (min/avg/max) = 7.127 | 7.127 | 7.127 Mbytes
Step Temp TotEng Press PotEng c_pe 
      18            0     1327.511    50.139975     1327.511     1327.511 
Loop time of 1.9e-06 on 1 procs for 0 steps with 2 atoms


next i
jump SELF loop

  reset_timestep $i
  reset_timestep 19
  set atom 2 x ${x2}
  set atom 2 x 0.59
  1 settings made for x
  run 0 pre yes post no # force neighborlist rebuild
WARNING: No fixes defined, atoms won't move (src/verlet.cpp:52)
Per MPI rank memory allocation (min/avg/max) = 7.127 | 7.127 | 7.127 Mbytes
Step Temp TotEng Press PotEng c_pe 
      19            0    1076.6871     40.75536    1076.6871    1076.6871 
Loop time of 2.3e-06 on 1 procs for 0 steps with 2 atoms


next i
jump SELF loop

  reset_timestep $i
  reset_timestep 20
  set atom 2 x ${x2}
  set atom 2 x 0.6
  1 settings made for x
  run 0 pre yes post no # force neighborlist rebuild
WARNING: No fixes defined, atoms won't move (src/verlet.cpp:52)
Per MPI rank memory allocation (min/avg/max) = 7.127 | 7.127 | 7.127 Mbytes
Step Temp TotEng Press PotEng c_pe 
      20            0    875.92037    33.235328    875.92037    875.92037 
Loop time of 2.2e-06 on 1 procs for 0 steps with 2 atoms


next i
jump SELF loop

  reset_timestep $i
  reset_timestep 21
  set atom 2 x ${x2}
  set atom 2 x 0.61
  1 settings made for x
  run 0 pre yes post no # force neighborlist rebuild
WARNING: No fixes defined, atoms won't move (src/verlet.cpp:52)
Per MPI rank memory allocation (min/avg/max) = 7.127 | 7.127 | 7.127 Mbytes
Step Temp TotEng Press PotEng c_pe 
      21            0    714.66083    27.187801    714.66083    714.66083 
Loop time of 2.6e-06 on 1 procs for 0 steps with 2 atoms


next i
jump SELF loop

  reset_timestep $i
  reset_timestep 22
  set atom 2 x ${x2}
  set atom 2 x 0.62
  1 settings made for x
  run 0 pre yes post no # force neighborlist rebuild
WARNING: No fixes defined, atoms won't move (src/verlet.cpp:52)
Per MPI rank memory allocation (min/avg/max) = 7.127 | 7.127 | 7.127 Mbytes
Step Temp TotEng Press PotEng c_pe 
      22            0    584.70042    22.307629    584.70042    584.70042 
Loop time of 2e-06 on 1 procs for 0 steps with 2 atoms


next i
jump SELF loop

  reset_timestep $i
  reset_timestep 23
  set atom 2 x ${x2}
  set atom 2 x 0.63
  1 settings made for x
  run 0 pre yes post no # force neighborlist rebuild
WARNING: No fixes defined, atoms won't move (src/verlet.cpp:52)
Per MPI rank memory allocation (min/avg/max) = 7.127 | 7.127 | 7.127 Mbytes
Step Temp TotEng Press PotEng c_pe 
      23            0    479.62719     18.35634    479.62719    479.62719 
Loop time of 2e-06 on 1 procs for 0 steps with 2 atoms


next i
jump SELF loop

  reset_timestep $i
  reset_timestep 24
  set atom 2 x ${x2}
  set atom 2 x 0.64
  1 settings made for x
  run 0 pre yes post no # force neighborlist rebuild
WARNING: No fixes defined, atoms won't move (src/verlet.cpp:52)
Per MPI rank memory allocation (min/avg/max) = 7.127 | 7.127 | 7.127 Mbytes
Step Temp TotEng Press PotEng c_pe 
      24            0    394.41264    15.146835    394.41264    394.41264 
Loop time of 1.9e-06 on 1 procs for 0 steps with 2 atoms


next i
jump SELF loop

  reset_timestep $i
  reset_timestep 25
  set atom 2 x ${x2}
  set atom 2 x 0.65
  1 settings made for x
  run 0 pre yes post no # force neighborlist rebuild
WARNING: No fixes defined, atoms won't move (src/verlet.cpp:52)
Per MPI rank memory allocation (min/avg/max) = 7.127 | 7.127 | 7.127 Mbytes
Step Temp TotEng Press PotEng c_pe 
      25            0    325.09832    12.531763    325.09832    325.09832 
Loop time of 2e-06 on 1 procs for 0 steps with 2 atoms


next i
jump SELF loop

  reset_timestep $i
  reset_timestep 26
  set atom 2 x ${x2}
  set atom 2 x 0.66
  1 settings made for x
  run 0 pre yes post no # force neighborlist rebuild
WARNING: No fixes defined, atoms won't move (src/verlet.cpp:52)
Per MPI rank memory allocation (min/avg/max) = 7.127 | 7.127 | 7.127 Mbytes
Step Temp TotEng Press PotEng c_pe 
      26            0    268.55668    10.394641    268.55668    268.55668 
Loop time of 2e-06 on 1 procs for 0 steps with 2 atoms


next i
jump SELF loop

  reset_timestep $i
  reset_timestep 27
  set atom 2 x ${x2}
  set atom 2 x 0.67
  1 settings made for x
  run 0 pre yes post no # force neighborlist rebuild
WARNING: No fixes defined, atoms won't move (src/verlet.cpp:52)
Per MPI rank memory allocation (min/avg/max) = 7.127 | 7.127 | 7.127 Mbytes
Step Temp TotEng Press PotEng c_pe 
      27            0    222.30792    8.6430641    222.30792    222.30792 
Loop time of 2.8e-06 on 1 procs for 0 steps with 2 atoms


next i
jump SELF loop

  reset_timestep $i
  reset_timestep 28
  set atom 2 x ${x2}
  set atom 2 x 0.68
  1 settings made for x
  run 0 pre yes post no # force neighborlist rebuild
WARNING: No fixes defined, atoms won't move (src/verlet.cpp:52)
Per MPI rank memory allocation (min/avg/max) = 7.127 | 7.127 | 7.127 Mbytes
Step Temp TotEng Press PotEng c_pe 
      28            0    184.37911    7.2034687    184.37911    184.37911 
Loop time of 1.6e-06 on 1 procs for 0 steps with 2 atoms


next i
jump SELF loop

  reset_timestep $i
  reset_timestep 29
  set atom 2 x ${x2}
  set atom 2 x 0.69
  1 settings made for x
  run 0 pre yes post no # force neighborlist rebuild
WARNING: No fixes defined, atoms won't move (src/verlet.cpp:52)
Per MPI rank memory allocation (min/avg/max) = 7.127 | 7.127 | 7.127 Mbytes
Step Temp TotEng Press PotEng c_pe 
      29            0    153.19536    6.0170977    153.19536    153.19536 
Loop time of 1.6e-06 on 1 procs for 0 steps with 2 atoms


next i
jump SELF loop

  reset_timestep $i
  reset_timestep 30
  set atom 2 x ${x2}
  set atom 2 x 0.7
  1 settings made for x
  run 0 pre yes post no # force neighborlist rebuild
WARNING: No fixes defined, atoms won't move (src/verlet.cpp:52)
Per MPI rank memory allocation (min/avg/max) = 7.127 | 7.127 | 7.127 Mbytes
Step Temp TotEng Press PotEng c_pe 
      30            0    127.49551    5.0368656    127.49551    127.49551 
Loop time of 1.6e-06 on 1 procs for 0 steps with 2 atoms


next i
jump SELF loop

  reset_timestep $i
  reset_timestep 31
  set atom 2 x ${x2}
  set atom 2 x 0.71
  1 settings made for x
  run 0 pre yes post no # force neighborlist rebuild
WARNING: No fixes defined, atoms won't move (src/verlet.cpp:52)
Per MPI rank memory allocation (min/avg/max) = 7.127 | 7.127 | 7.127 Mbytes
Step Temp TotEng Press PotEng c_pe 
      31            0    106.26649    4.2249214    106.26649    106.26649 
Loop time of 1.6e-06 on 1 procs for 0 steps with 2 atoms


next i
jump SELF loop

  reset_timestep $i
  reset_timestep 32
  set atom 2 x ${x2}
  set atom 2 x 0.72
  1 settings made for x
  run 0 pre yes post no # force neighborlist rebuild
WARNING: No fixes defined, atoms won't move (src/verlet.cpp:52)
Per MPI rank memory allocation (min/avg/max) = 7.127 | 7.127 | 7.127 Mbytes
Step Temp TotEng Press PotEng c_pe 
      32            0     88.69206    3.5507439     88.69206     88.69206 
Loop time of 1.6e-06 on 1 procs for 0 steps with 2 atoms


next i
jump SELF loop

  reset_timestep $i
  reset_timestep 33
  set atom 2 x ${x2}
  set atom 2 x 0.73
  1 settings made for x
  run 0 pre yes post no # force neighborlist rebuild
WARNING: No fixes defined, atoms won't move (src/verlet.cpp:52)
Per MPI rank memory allocation (min/avg/max) = 7.127 | 7.127 | 7.127 Mbytes
Step Temp TotEng Press PotEng c_pe 
      33            0    74.112653    2.9896498    74.112653    74.112653 
Loop time of 1.6e-06 on 1 procs for 0 steps with 2 atoms


next i
jump SELF loop

  reset_timestep $i
  reset_timestep 34
  set atom 2 x ${x2}
  set atom 2 x 0.74
  1 settings made for x
  run 0 pre yes post no # force neighborlist rebuild
WARNING: No fixes defined, atoms won't move (src/verlet.cpp:52)
Per MPI rank memory allocation (min/avg/max) = 7.127 | 7.127 | 7.127 Mbytes
Step Temp TotEng Press PotEng c_pe 
      34            0    61.993814    2.5216188    61.993814    61.993814 
Loop time of 1.6e-06 on 1 procs for 0 steps with 2 atoms


next i
jump SELF loop

  reset_timestep $i
  reset_timestep 35
  set atom 2 x ${x2}
  set atom 2 x 0.75
  1 settings made for x
  run 0 pre yes post no # force neighborlist rebuild
WARNING: No fixes defined, atoms won't move (src/verlet.cpp:52)
Per MPI rank memory allocation (min/avg/max) = 7.127 | 7.127 | 7.127 Mbytes
Step Temp TotEng Press PotEng c_pe 
      35            0    51.901272    2.1303677    51.901272    51.901272 
Loop time of 1.5e-06 on 1 procs for 0 steps with 2 atoms


next i
jump SELF loop

  reset_timestep $i
  reset_timestep 36
  set atom 2 x ${x2}
  set atom 2 x 0.76
  1 settings made for x
  run 0 pre yes post no # force neighborlist rebuild
WARNING: No fixes defined, atoms won't move (src/verlet.cpp:52)
Per MPI rank memory allocation (min/avg/max) = 7.127 | 7.127 | 7.127 Mbytes
Step Temp TotEng Press PotEng c_pe 
      36            0    43.481236    1.8026167    43.481236    43.481236 
Loop time of 2.2e-06 on 1 procs for 0 steps with 2 atoms


next i
jump SELF loop

  reset_timestep $i
  reset_timestep 37
  set atom 2 x ${x2}
  set atom 2 x 0.77
  1 settings made for x
  run 0 pre yes post no # force neighborlist rebuild
WARNING: No fixes defined, atoms won't move (src/verlet.cpp:52)
Per MPI rank memory allocation (min/avg/max) = 7.127 | 7.127 | 7.127 Mbytes
Step Temp TotEng Press PotEng c_pe 
      37            0    36.444735    1.5275068    36.444735    36.444735 
Loop time of 1.5e-06 on 1 procs for 0 steps with 2 atoms


next i
jump SELF loop

  reset_timestep $i
  reset_timestep 38
  set atom 2 x ${x2}
  set atom 2 x 0.78
  1 settings made for x
  run 0 pre yes post no # force neighborlist rebuild
WARNING: No fixes defined, atoms won't move (src/verlet.cpp:52)
Per MPI rank memory allocation (min/avg/max) = 7.127 | 7.127 | 7.127 Mbytes
Step Temp TotEng Press PotEng c_pe 
      38            0    30.555163    1.2961358    30.555163    30.555163 
Loop time of 1.5e-06 on 1 procs for 0 steps with 2 atoms


next i
jump SELF loop

  reset_timestep $i
  reset_timestep 39
  set atom 2 x ${x2}
  set atom 2 x 0.79
  1 settings made for x
  run 0 pre yes post no # force neighborlist rebuild
WARNING: No fixes defined, atoms won't move (src/verlet.cpp:52)
Per MPI rank memory allocation (min/avg/max) = 7.127 | 7.127 | 7.127 Mbytes
Step Temp TotEng Press PotEng c_pe 
      39            0    25.618317    1.1011875    25.618317    25.618317 
Loop time of 1.6e-06 on 1 procs for 0 steps with 2 atoms


next i
jump SELF loop

  reset_timestep $i
  reset_timestep 40
  set atom 2 x ${x2}
  set atom 2 x 0.8
  1 settings made for x
  run 0 pre yes post no # force neighborlist rebuild
WARNING: No fixes defined, atoms won't move (src/verlet.cpp:52)
Per MPI rank memory allocation (min/avg/max) = 7.127 | 7.127 | 7.127 Mbytes
Step Temp TotEng Press PotEng c_pe 
      40            0    21.474436   0.93663456    21.474436    21.474436 
Loop time of 1.5e-06 on 1 procs for 0 steps with 2 atoms


next i
jump SELF loop

  reset_timestep $i
  reset_timestep 41
  set atom 2 x ${x2}
  set atom 2 x 0.81
  1 settings made for x
  run 0 pre yes post no # force neighborlist rebuild
WARNING: No fixes defined, atoms won't move (src/verlet.cpp:52)
Per MPI rank memory allocation (min/avg/max) = 7.127 | 7.127 | 7.127 Mbytes
Step Temp TotEng Press PotEng c_pe 
      41            0    17.991788   0.79749978    17.991788    17.991788 
Loop time of 1.6e-06 on 1 procs for 0 steps with 2 atoms


next i
jump SELF loop

  reset_timestep $i
  reset_timestep 42
  set atom 2 x ${x2}
  set atom 2 x 0.82
  1 settings made for x
  run 0 pre yes post no # force neighborlist rebuild
WARNING: No fixes defined, atoms won't move (src/verlet.cpp:52)
Per MPI rank memory allocation (min/avg/max) = 7.127 | 7.127 | 7.127 Mbytes
Step Temp TotEng Press PotEng c_pe 
      42            0    15.061521   0.67966381    15.061521    15.061521 
Loop time of 1.5e-06 on 1 procs for 0 steps with 2 atoms


next i
jump SELF loop

  reset_timestep $i
  reset_timestep 43
  set atom 2 x ${x2}
  set atom 2 x 0.83
  1 settings made for x
  run 0 pre yes post no # force neighborlist rebuild
WARNING: No fixes defined, atoms won't move (src/verlet.cpp:52)
Per MPI rank memory allocation (min/avg/max) = 7.127 | 7.127 | 7.127 Mbytes
Step Temp TotEng Press PotEng c_pe 
      43            0    12.593499   0.57970967    12.593499    12.593499 
Loop time of 1.5e-06 on 1 procs for 0 steps with 2 atoms


next i
jump SELF loop

  reset_timestep $i
  reset_timestep 44
  set atom 2 x ${x2}
  set atom 2 x 0.84
  1 settings made for x
  run 0 pre yes post no # force neighborlist rebuild
WARNING: No fixes defined, atoms won't move (src/verlet.cpp:52)
Per MPI rank memory allocation (min/avg/max) = 7.127 | 7.127 | 7.127 Mbytes
Step Temp TotEng Press PotEng c_pe 
      44            0     10.51293   0.49479689     10.51293     10.51293 
Loop time of 1.6e-06 on 1 procs for 0 steps with 2 atoms


next i
jump SELF loop

  reset_timestep $i
  reset_timestep 45
  set atom 2 x ${x2}
  set atom 2 x 0.85
  1 settings made for x
  run 0 pre yes post no # force neighborlist rebuild
WARNING: No fixes defined, atoms won't move (src/verlet.cpp:52)
Per MPI rank memory allocation (min/avg/max) = 7.127 | 7.127 | 7.127 Mbytes
Step Temp TotEng Press PotEng c_pe 
      45            0     8.757632   0.42255927     8.757632     8.757632 
Loop time of 2.1e-06 on 1 procs for 0 steps with 2 atoms


next i
jump SELF loop

  reset_timestep $i
  reset_timestep 46
  set atom 2 x ${x2}
  set atom 2 x 0.86
  1 settings made for x
  run 0 pre yes post no # force neighborlist rebuild
WARNING: No fixes defined, atoms won't move (src/verlet.cpp:52)
Per MPI rank memory allocation (min/avg/max) = 7.127 | 7.127 | 7.127 Mbytes
Step Temp TotEng Press PotEng c_pe 
      46            0    7.2758093   0.36102172    7.2758093    7.2758093 
Loop time of 1.6e-06 on 1 procs for 0 steps with 2 atoms


next i
jump SELF loop

  reset_timestep $i
  reset_timestep 47
  set atom 2 x ${x2}
  set atom 2 x 0.87
  1 settings made for x
  run 0 pre yes post no # force neighborlist rebuild
WARNING: No fixes defined, atoms won't move (src/verlet.cpp:52)
Per MPI rank memory allocation (min/avg/max) = 7.127 | 7.127 | 7.127 Mbytes
Step Temp TotEng Press PotEng c_pe 
      47            0     6.024238   0.30853228     6.024238     6.024238 
Loop time of 1.5e-06 on 1 procs for 0 steps with 2 atoms


next i
jump SELF loop

  reset_timestep $i
  reset_timestep 48
  set atom 2 x ${x2}
  set atom 2 x 0.88
  1 settings made for x
  run 0 pre yes post no # force neighborlist rebuild
WARNING: No fixes defined, atoms won't move (src/verlet.cpp:52)
Per MPI rank memory allocation (min/avg/max) = 7.127 | 7.127 | 7.127 Mbytes
Step Temp TotEng Press PotEng c_pe 
      48            0     4.966783   0.26370667     4.966783     4.966783 
Loop time of 1.6e-06 on 1 procs for 0 steps with 2 atoms


next i
jump SELF loop

  reset_timestep $i
  reset_timestep 49
  set atom 2 x ${x2}
  set atom 2 x 0.89
  1 settings made for x
  run 0 pre yes post no # force neighborlist rebuild
WARNING: No fixes defined, atoms won't move (src/verlet.cpp:52)
Per MPI rank memory allocation (min/avg/max) = 7.127 | 7.127 | 7.127 Mbytes
Step Temp TotEng Press PotEng c_pe 
      49            0    4.0731842   0.22538268    4.0731842    4.0731842 
Loop time of 1.5e-06 on 1 procs for 0 steps with 2 atoms


next i
jump SELF loop

  reset_timestep $i
  reset_timestep 50
  set atom 2 x ${x2}
  set atom 2 x 0.9
  1 settings made for x
  run 0 pre yes post no # force neighborlist rebuild
WARNING: No fixes defined, atoms won't move (src/verlet.cpp:52)
Per MPI rank memory allocation (min/avg/max) = 7.127 | 7.127 | 7.127 Mbytes
Step Temp TotEng Press PotEng c_pe 
      50            0    3.3180595   0.19258281    3.3180595    3.3180595 
Loop time of 1.5e-06 on 1 procs for 0 steps with 2 atoms


next i
jump SELF loop

  reset_timestep $i
  reset_timestep 51
  set atom 2 x ${x2}
  set atom 2 x 0.91
  1 settings made for x
  run 0 pre yes post no # force neighborlist rebuild
WARNING: No fixes defined, atoms won't move (src/verlet.cpp:52)
Per MPI rank memory allocation (min/avg/max) = 7.127 | 7.127 | 7.127 Mbytes
Step Temp TotEng Press PotEng c_pe 
      51            0    2.6800843   0.16448345    2.6800843    2.6800843 
Loop time of 1.6e-06 on 1 procs for 0 steps with 2 atoms


next i
jump SELF loop

  reset_timestep $i
  reset_timestep 52
  set atom 2 x ${x2}
  set atom 2 x 0.92
  1 settings made for x
  run 0 pre yes post no # force neighborlist rebuild
WARNING: No fixes defined, atoms won't move (src/verlet.cpp:52)
Per MPI rank memory allocation (min/avg/max) = 7.127 | 7.127 | 7.127 Mbytes
Step Temp TotEng Press PotEng c_pe 
      52            0    2.1413162   0.14038945    2.1413162    2.1413162 
Loop time of 1.5e-06 on 1 procs for 0 steps with 2 atoms


next i
jump SELF loop

  reset_timestep $i
  reset_timestep 53
  set atom 2 x ${x2}
  set atom 2 x 0.93
  1 settings made for x
  run 0 pre yes post no # force neighborlist rebuild
WARNING: No fixes defined, atoms won't move (src/verlet.cpp:52)
Per MPI rank memory allocation (min/avg/max) = 7.127 | 7.127 | 7.127 Mbytes
Step Temp TotEng Press PotEng c_pe 
      53            0    1.6866361   0.11971313    1.6866361    1.6866361 
Loop time of 1.5e-06 on 1 procs for 0 steps with 2 atoms


next i
jump SELF loop

  reset_timestep $i
  reset_timestep 54
  set atom 2 x ${x2}
  set atom 2 x 0.94
  1 settings made for x
  run 0 pre yes post no # force neighborlist rebuild
WARNING: No fixes defined, atoms won't move (src/verlet.cpp:52)
Per MPI rank memory allocation (min/avg/max) = 7.127 | 7.127 | 7.127 Mbytes
Step Temp TotEng Press PotEng c_pe 
      54            0    1.3032863   0.10195686    1.3032863    1.3032863 
Loop time of 1.9e-06 on 1 procs for 0 steps with 2 atoms


next i
jump SELF loop

  reset_timestep $i
  reset_timestep 55
  set atom 2 x ${x2}
  set atom 2 x 0.95
  1 settings made for x
  run 0 pre yes post no # force neighborlist rebuild
WARNING: No fixes defined, atoms won't move (src/verlet.cpp:52)
Per MPI rank memory allocation (min/avg/max) = 7.127 | 7.127 | 7.127 Mbytes
Step Temp TotEng Press PotEng c_pe 
      55            0   0.98048733  0.086698573   0.98048733   0.98048733 
Loop time of 1.6e-06 on 1 procs for 0 steps with 2 atoms


next i
jump SELF loop

  reset_timestep $i
  reset_timestep 56
  set atom 2 x ${x2}
  set atom 2 x 0.96
  1 settings made for x
  run 0 pre yes post no # force neighborlist rebuild
WARNING: No fixes defined, atoms won't move (src/verlet.cpp:52)
Per MPI rank memory allocation (min/avg/max) = 7.127 | 7.127 | 7.127 Mbytes
Step Temp TotEng Press PotEng c_pe 
      56            0   0.70911947  0.073579773   0.70911947   0.70911947 
Loop time of 1.6e-06 on 1 procs for 0 steps with 2 atoms


next i
jump SELF loop

  reset_timestep $i
  reset_timestep 57
  set atom 2 x ${x2}
  set atom 2 x 0.97
  1 settings made for x
  run 0 pre yes post no # force neighborlist rebuild
WARNING: No fixes defined, atoms won't move (src/verlet.cpp:52)
Per MPI rank memory allocation (min/avg/max) = 7.127 | 7.127 | 7.127 Mbytes
Step Temp TotEng Press PotEng c_pe 
      57            0   0.48145805  0.062295503   0.48145805   0.48145805 
Loop time of 1.6e-06 on 1 procs for 0 steps with 2 atoms


next i
jump SELF loop

  reset_timestep $i
  reset_timestep 58
  set atom 2 x ${x2}
  set atom 2 x 0.98
  1 settings made for x
  run 0 pre yes post no # force neighborlist rebuild
WARNING: No fixes defined, atoms won't move (src/verlet.cpp:52)
Per MPI rank memory allocation (min/avg/max) = 7.127 | 7.127 | 7.127 Mbytes
Step Temp TotEng Press PotEng c_pe 
      58            0   0.29095243  0.052585979   0.29095243   0.29095243 
Loop time of 1.5e-06 on 1 procs for 0 steps with 2 atoms


next i
jump SELF loop

  reset_timestep $i
  reset_timestep 59
  set atom 2 x ${x2}
  set atom 2 x 0.99
  1 settings made for x
  run 0 pre yes post no # force neighborlist rebuild
WARNING: No fixes defined, atoms won't move (src/verlet.cpp:52)
Per MPI rank memory allocation (min/avg/max) = 7.127 | 7.127 | 7.127 Mbytes
Step Temp TotEng Press PotEng c_pe 
      59            0   0.13204163  0.044229589   0.13204163   0.13204163 
Loop time of 1.6e-06 on 1 procs for 0 steps with 2 atoms


next i
jump SELF loop

  reset_timestep $i
  reset_timestep 60
  set atom 2 x ${x2}
  set atom 2 x 1
  1 settings made for x
  run 0 pre yes post no # force neighborlist rebuild
WARNING: No fixes defined, atoms won't move (src/verlet.cpp:52)
Per MPI rank memory allocation (min/avg/max) = 7.127 | 7.127 | 7.127 Mbytes
Step Temp TotEng Press PotEng c_pe 
      60            0            0  0.037037037            0            0 
Loop time of 1.6e-06 on 1 procs for 0 steps with 2 atoms


next i
jump SELF loop

  reset_timestep $i
  reset_timestep 61
  set atom 2 x ${x2}
  set atom 2 x 1.01
  1 settings made for x
  run 0 pre yes post no # force neighborlist rebuild
WARNING: No fixes defined, atoms won't move (src/verlet.cpp:52)
Per MPI rank memory allocation (min/avg/max) = 7.127 | 7.127 | 7.127 Mbytes
Step Temp TotEng Press PotEng c_pe 
      61            0  -0.10919202  0.030846415  -0.10919202  -0.10919202 
Loop time of 1.5e-06 on 1 procs for 0 steps with 2 atoms


next i
jump SELF loop

  reset_timestep $i
  reset_timestep 62
  set atom 2 x ${x2}
  set atom 2 x 1.02
  1 settings made for x
  run 0 pre yes post no # force neighborlist rebuild
WARNING: No fixes defined, atoms won't move (src/verlet.cpp:52)
Per MPI rank memory allocation (min/avg/max) = 7.127 | 7.127 | 7.127 Mbytes
Step Temp TotEng Press PotEng c_pe 
      62            0  -0.19895641  0.025519073  -0.19895641  -0.19895641 
Loop time of 1.6e-06 on 1 procs for 0 steps with 2 atoms


next i
jump SELF loop

  reset_timestep $i
  reset_timestep 63
  set atom 2 x ${x2}
  set atom 2 x 1.03
  1 settings made for x
  run 0 pre yes post no # force neighborlist rebuild
WARNING: No fixes defined, atoms won't move (src/verlet.cpp:52)
Per MPI rank memory allocation (min/avg/max) = 7.127 | 7.127 | 7.127 Mbytes
Step Temp TotEng Press PotEng c_pe 
      63            0  -0.27220875   0.02093613  -0.27220875  -0.27220875 
Loop time of 2.3e-06 on 1 procs for 0 steps with 2 atoms


next i
jump SELF loop

  reset_timestep $i
  reset_timestep 64
  set atom 2 x ${x2}
  set atom 2 x 1.04
  1 settings made for x
  run 0 pre yes post no # force neighborlist rebuild
WARNING: No fixes defined, atoms won't move (src/verlet.cpp:52)
Per MPI rank memory allocation (min/avg/max) = 7.127 | 7.127 | 7.127 Mbytes
Step Temp TotEng Press PotEng c_pe 
      64            0  -0.33143495   0.01699554  -0.33143495  -0.33143495 
Loop time of 1.6e-06 on 1 procs for 0 steps with 2 atoms


next i
jump SELF loop

  reset_timestep $i
  reset_timestep 65
  set atom 2 x ${x2}
  set atom 2 x 1.05
  1 settings made for x
  run 0 pre yes post no # force neighborlist rebuild
WARNING: No fixes defined, atoms won't move (src/verlet.cpp:52)
Per MPI rank memory allocation (min/avg/max) = 7.127 | 7.127 | 7.127 Mbytes
Step Temp TotEng Press PotEng c_pe 
      65            0  -0.37875596  0.013609609  -0.37875596  -0.37875596 
Loop time of 1.6e-06 on 1 procs for 0 steps with 2 atoms


next i
jump SELF loop

  reset_timestep $i
  reset_timestep 66
  set atom 2 x ${x2}
  set atom 2 x 1.06
  1 settings made for x
  run 0 pre yes post no # force neighborlist rebuild
WARNING: No fixes defined, atoms won't move (src/verlet.cpp:52)
Per MPI rank memory allocation (min/avg/max) = 7.127 | 7.127 | 7.127 Mbytes
Step Temp TotEng Press PotEng c_pe 
      66            0  -0.41598235  0.010702896  -0.41598235  -0.41598235 
Loop time of 1.6e-06 on 1 procs for 0 steps with 2 atoms


next i
jump SELF loop

  reset_timestep $i
  reset_timestep 67
  set atom 2 x ${x2}
  set atom 2 x 1.07
  1 settings made for x
  run 0 pre yes post no # force neighborlist rebuild
WARNING: No fixes defined, atoms won't move (src/verlet.cpp:52)
Per MPI rank memory allocation (min/avg/max) = 7.127 | 7.127 | 7.127 Mbytes
Step Temp TotEng Press PotEng c_pe 
      67            0  -0.44466053 0.0082104331  -0.44466053  -0.44466053 
Loop time of 1.6e-06 on 1 procs for 0 steps with 2 atoms


next i
jump SELF loop

  reset_timestep $i
  reset_timestep 68
  set atom 2 x ${x2}
  set atom 2 x 1.08
  1 settings made for x
  run 0 pre yes post no # force neighborlist rebuild
WARNING: No fixes defined, atoms won't move (src/verlet.cpp:52)
Per MPI rank memory allocation (min/avg/max) = 7.127 | 7.127 | 7.127 Mbytes
Step Temp TotEng Press PotEng c_pe 
      68            0  -0.46611174 0.0060762182  -0.46611174  -0.46611174 
Loop time of 1.6e-06 on 1 procs for 0 steps with 2 atoms


next i
jump SELF loop

  reset_timestep $i
  reset_timestep 69
  set atom 2 x ${x2}
  set atom 2 x 1.09
  1 settings made for x
  run 0 pre yes post no # force neighborlist rebuild
WARNING: No fixes defined, atoms won't move (src/verlet.cpp:52)
Per MPI rank memory allocation (min/avg/max) = 7.127 | 7.127 | 7.127 Mbytes
Step Temp TotEng Press PotEng c_pe 
      69            0   -0.4814652 0.0042519305   -0.4814652   -0.4814652 
Loop time of 1.5e-06 on 1 procs for 0 steps with 2 atoms


next i
jump SELF loop

  reset_timestep $i
  reset_timestep 70
  set atom 2 x ${x2}
  set atom 2 x 1.1
  1 settings made for x
  run 0 pre yes post no # force neighborlist rebuild
WARNING: No fixes defined, atoms won't move (src/verlet.cpp:52)
Per MPI rank memory allocation (min/avg/max) = 7.127 | 7.127 | 7.127 Mbytes
Step Temp TotEng Press PotEng c_pe 
      70            0  -0.49168622 0.0026958409  -0.49168622  -0.49168622 
Loop time of 1.5e-06 on 1 procs for 0 steps with 2 atoms


next i
jump SELF loop

  reset_timestep $i
  reset_timestep 71
  set atom 2 x ${x2}
  set atom 2 x 1.11
  1 settings made for x
  run 0 pre yes post no # force neighborlist rebuild
WARNING: No fixes defined, atoms won't move (src/verlet.cpp:52)
Per MPI rank memory allocation (min/avg/max) = 7.127 | 7.127 | 7.127 Mbytes
Step Temp TotEng Press PotEng c_pe 
      71            0  -0.49760002 0.0013718819  -0.49760002  -0.49760002 
Loop time of 1.5e-06 on 1 procs for 0 steps with 2 atoms


next i
jump SELF loop

  reset_timestep $i
  reset_timestep 72
  set atom 2 x ${x2}
  set atom 2 x 1.12
  1 settings made for x
  run 0 pre yes post no # force neighborlist rebuild
WARNING: No fixes defined, atoms won't move (src/verlet.cpp:52)
Per MPI rank memory allocation (min/avg/max) = 7.127 | 7.127 | 7.127 Mbytes
Step Temp TotEng Press PotEng c_pe 
      72            0  -0.49991206 0.00024885425  -0.49991206  -0.49991206 
Loop time of 1.9e-06 on 1 procs for 0 steps with 2 atoms


next i
jump SELF loop

  reset_timestep $i
  reset_timestep 73
  set atom 2 x ${x2}
  set atom 2 x 1.13
  1 settings made for x
  run 0 pre yes post no # force neighborlist rebuild
WARNING: No fixes defined, atoms won't move (src/verlet.cpp:52)
Per MPI rank memory allocation (min/avg/max) = 7.127 | 7.127 | 7.127 Mbytes
Step Temp TotEng Press PotEng c_pe 
      73            0  -0.49922528 -0.00070025007  -0.49922528  -0.49922528 
Loop time of 1.5e-06 on 1 procs for 0 steps with 2 atoms


next i
jump SELF loop

  reset_timestep $i
  reset_timestep 74
  set atom 2 x ${x2}
  set atom 2 x 1.14
  1 settings made for x
  run 0 pre yes post no # force neighborlist rebuild
WARNING: No fixes defined, atoms won't move (src/verlet.cpp:52)
Per MPI rank memory allocation (min/avg/max) = 7.127 | 7.127 | 7.127 Mbytes
Step Temp TotEng Press PotEng c_pe 
      74            0  -0.49605489 -0.0014988275  -0.49605489  -0.49605489 
Loop time of 1.6e-06 on 1 procs for 0 steps with 2 atoms


next i
jump SELF loop

  reset_timestep $i
  reset_timestep 75
  set atom 2 x ${x2}
  set atom 2 x 1.15
  1 settings made for x
  run 0 pre yes post no # force neighborlist rebuild
WARNING: No fixes defined, atoms won't move (src/verlet.cpp:52)
Per MPI rank memory allocation (min/avg/max) = 7.127 | 7.127 | 7.127 Mbytes
Step Temp TotEng Press PotEng c_pe 
      75            0  -0.49084089 -0.0021671591  -0.49084089  -0.49084089 
Loop time of 1.5e-06 on 1 procs for 0 steps with 2 atoms


next i
jump SELF loop

  reset_timestep $i
  reset_timestep 76
  set atom 2 x ${x2}
  set atom 2 x 1.16
  1 settings made for x
  run 0 pre yes post no # force neighborlist rebuild
WARNING: No fixes defined, atoms won't move (src/verlet.cpp:52)
Per MPI rank memory allocation (min/avg/max) = 7.127 | 7.127 | 7.127 Mbytes
Step Temp TotEng Press PotEng c_pe 
      76            0  -0.48395882 -0.0027228358  -0.48395882  -0.48395882 
Loop time of 1.6e-06 on 1 procs for 0 steps with 2 atoms


next i
jump SELF loop

  reset_timestep $i
  reset_timestep 77
  set atom 2 x ${x2}
  set atom 2 x 1.17
  1 settings made for x
  run 0 pre yes post no # force neighborlist rebuild
WARNING: No fixes defined, atoms won't move (src/verlet.cpp:52)
Per MPI rank memory allocation (min/avg/max) = 7.127 | 7.127 | 7.127 Mbytes
Step Temp TotEng Press PotEng c_pe 
      77            0  -0.47572893 -0.0031811236  -0.47572893  -0.47572893 
Loop time of 1.6e-06 on 1 procs for 0 steps with 2 atoms


next i
jump SELF loop

  reset_timestep $i
  reset_timestep 78
  set atom 2 x ${x2}
  set atom 2 x 1.18
  1 settings made for x
  run 0 pre yes post no # force neighborlist rebuild
WARNING: No fixes defined, atoms won't move (src/verlet.cpp:52)
Per MPI rank memory allocation (min/avg/max) = 7.127 | 7.127 | 7.127 Mbytes
Step Temp TotEng Press PotEng c_pe 
      78            0  -0.46642403 -0.0035552774  -0.46642403  -0.46642403 
Loop time of 1.6e-06 on 1 procs for 0 steps with 2 atoms


next i
jump SELF loop

  reset_timestep $i
  reset_timestep 79
  set atom 2 x ${x2}
  set atom 2 x 1.19
  1 settings made for x
  run 0 pre yes post no # force neighborlist rebuild
WARNING: No fixes defined, atoms won't move (src/verlet.cpp:52)
Per MPI rank memory allocation (min/avg/max) = 7.127 | 7.127 | 7.127 Mbytes
Step Temp TotEng Press PotEng c_pe 
      79            0  -0.45627622 -0.0038568107  -0.45627622  -0.45627622 
Loop time of 1.5e-06 on 1 procs for 0 steps with 2 atoms


next i
jump SELF loop

  reset_timestep $i
  reset_timestep 80
  set atom 2 x ${x2}
  set atom 2 x 1.2
  1 settings made for x
  run 0 pre yes post no # force neighborlist rebuild
WARNING: No fixes defined, atoms won't move (src/verlet.cpp:52)
Per MPI rank memory allocation (min/avg/max) = 7.127 | 7.127 | 7.127 Mbytes
Step Temp TotEng Press PotEng c_pe 
      80            0  -0.44548264 -0.0040957284  -0.44548264  -0.44548264 
Loop time of 2.1e-06 on 1 procs for 0 steps with 2 atoms


next i
jump SELF loop

  reset_timestep $i
  reset_timestep 81
  set atom 2 x ${x2}
  set atom 2 x 1.21
  1 settings made for x
  run 0 pre yes post no # force neighborlist rebuild
WARNING: No fixes defined, atoms won't move (src/verlet.cpp:52)
Per MPI rank memory allocation (min/avg/max) = 7.127 | 7.127 | 7.127 Mbytes
Step Temp TotEng Press PotEng c_pe 
      81            0  -0.43421044 -0.0042807267  -0.43421044  -0.43421044 
Loop time of 1.6e-06 on 1 procs for 0 steps with 2 atoms


next i
jump SELF loop

  reset_timestep $i
  reset_timestep 82
  set atom 2 x ${x2}
  set atom 2 x 1.22
  1 settings made for x
  run 0 pre yes post no # force neighborlist rebuild
WARNING: No fixes defined, atoms won't move (src/verlet.cpp:52)
Per MPI rank memory allocation (min/avg/max) = 7.127 | 7.127 | 7.127 Mbytes
Step Temp TotEng Press PotEng c_pe 
      82            0  -0.42260097 -0.0044193664  -0.42260097  -0.42260097 
Loop time of 1.6e-06 on 1 procs for 0 steps with 2 atoms


next i
jump SELF loop

  reset_timestep $i
  reset_timestep 83
  set atom 2 x ${x2}
  set atom 2 x 1.23
  1 settings made for x
  run 0 pre yes post no # force neighborlist rebuild
WARNING: No fixes defined, atoms won't move (src/verlet.cpp:52)
Per MPI rank memory allocation (min/avg/max) = 7.127 | 7.127 | 7.127 Mbytes
Step Temp TotEng Press PotEng c_pe 
      83            0  -0.41077347 -0.004518222  -0.41077347  -0.41077347 
Loop time of 1.6e-06 on 1 procs for 0 steps with 2 atoms


next i
jump SELF loop

  reset_timestep $i
  reset_timestep 84
  set atom 2 x ${x2}
  set atom 2 x 1.24
  1 settings made for x
  run 0 pre yes post no # force neighborlist rebuild
WARNING: No fixes defined, atoms won't move (src/verlet.cpp:52)
Per MPI rank memory allocation (min/avg/max) = 7.127 | 7.127 | 7.127 Mbytes
Step Temp TotEng Press PotEng c_pe 
      84            0  -0.39882818 -0.004583011  -0.39882818  -0.39882818 
Loop time of 1.6e-06 on 1 procs for 0 steps with 2 atoms


next i
jump SELF loop

  reset_timestep $i
  reset_timestep 85
  set atom 2 x ${x2}
  set atom 2 x 1.25
  1 settings made for x
  run 0 pre yes post no # force neighborlist rebuild
WARNING: No fixes defined, atoms won't move (src/verlet.cpp:52)
Per MPI rank memory allocation (min/avg/max) = 7.127 | 7.127 | 7.127 Mbytes
Step Temp TotEng Press PotEng c_pe 
      85            0  -0.38684905 -0.0046187054  -0.38684905  -0.38684905 
Loop time of 1.5e-06 on 1 procs for 0 steps with 2 atoms


next i
jump SELF loop

  reset_timestep $i
  reset_timestep 86
  set atom 2 x ${x2}
  set atom 2 x 1.26
  1 settings made for x
  run 0 pre yes post no # force neighborlist rebuild
WARNING: No fixes defined, atoms won't move (src/verlet.cpp:52)
Per MPI rank memory allocation (min/avg/max) = 7.127 | 7.127 | 7.127 Mbytes
Step Temp TotEng Press PotEng c_pe 
      86            0  -0.37490601 -0.004629629  -0.37490601  -0.37490601 
Loop time of 1.5e-06 on 1 procs for 0 steps with 2 atoms


next i
jump SELF loop

  reset_timestep $i
  reset_timestep 87
  set atom 2 x ${x2}
  set atom 2 x 1.27
  1 settings made for x
  run 0 pre yes post no # force neighborlist rebuild
WARNING: No fixes defined, atoms won't move (src/verlet.cpp:52)
Per MPI rank memory allocation (min/avg/max) = 7.127 | 7.127 | 7.127 Mbytes
Step Temp TotEng Press PotEng c_pe 
      87            0  -0.36305703 -0.0046195406  -0.36305703  -0.36305703 
Loop time of 1.6e-06 on 1 procs for 0 steps with 2 atoms


next i
jump SELF loop

  reset_timestep $i
  reset_timestep 88
  set atom 2 x ${x2}
  set atom 2 x 1.28
  1 settings made for x
  run 0 pre yes post no # force neighborlist rebuild
WARNING: No fixes defined, atoms won't move (src/verlet.cpp:52)
Per MPI rank memory allocation (min/avg/max) = 7.127 | 7.127 | 7.127 Mbytes
Step Temp TotEng Press PotEng c_pe 
      88            0  -0.35134977 -0.0045917074  -0.35134977  -0.35134977 
Loop time of 1.6e-06 on 1 procs for 0 steps with 2 atoms


next i
jump SELF loop

  reset_timestep $i
  reset_timestep 89
  set atom 2 x ${x2}
  set atom 2 x 1.29
  1 settings made for x
  run 0 pre yes post no # force neighborlist rebuild
WARNING: No fixes defined, atoms won't move (src/verlet.cpp:52)
Per MPI rank memory allocation (min/avg/max) = 7.127 | 7.127 | 7.127 Mbytes
Step Temp TotEng Press PotEng c_pe 
      89            0  -0.33982313 -0.0045489679  -0.33982313  -0.33982313 
Loop time of 1.5e-06 on 1 procs for 0 steps with 2 atoms


next i
jump SELF loop

  reset_timestep $i
  reset_timestep 90
  set atom 2 x ${x2}
  set atom 2 x 1.3
  1 settings made for x
  run 0 pre yes post no # force neighborlist rebuild
WARNING: No fixes defined, atoms won't move (src/verlet.cpp:52)
Per MPI rank memory allocation (min/avg/max) = 7.127 | 7.127 | 7.127 Mbytes
Step Temp TotEng Press PotEng c_pe 
      90            0  -0.32850846 -0.0044937869  -0.32850846  -0.32850846 
Loop time of 1.6e-06 on 1 procs for 0 steps with 2 atoms


next i
jump SELF loop

  reset_timestep $i
  reset_timestep 91
  set atom 2 x ${x2}
  set atom 2 x 1.31
  1 settings made for x
  run 0 pre yes post no # force neighborlist rebuild
WARNING: No fixes defined, atoms won't move (src/verlet.cpp:52)
Per MPI rank memory allocation (min/avg/max) = 7.127 | 7.127 | 7.127 Mbytes
Step Temp TotEng Press PotEng c_pe 
      91            0  -0.31743067 -0.0044283034  -0.31743067  -0.31743067 
Loop time of 1.5e-06 on 1 procs for 0 steps with 2 atoms


next i
jump SELF loop

  reset_timestep $i
  reset_timestep 92
  set atom 2 x ${x2}
  set atom 2 x 1.32
  1 settings made for x
  run 0 pre yes post no # force neighborlist rebuild
WARNING: No fixes defined, atoms won't move (src/verlet.cpp:52)
Per MPI rank memory allocation (min/avg/max) = 7.127 | 7.127 | 7.127 Mbytes
Step Temp TotEng Press PotEng c_pe 
      92            0  -0.30660922 -0.004354372  -0.30660922  -0.30660922 
Loop time of 1.5e-06 on 1 procs for 0 steps with 2 atoms


next i
jump SELF loop

  reset_timestep $i
  reset_timestep 93
  set atom 2 x ${x2}
  set atom 2 x 1.33
  1 settings made for x
  run 0 pre yes post no # force neighborlist rebuild
WARNING: No fixes defined, atoms won't move (src/verlet.cpp:52)
Per MPI rank memory allocation (min/avg/max) = 7.127 | 7.127 | 7.127 Mbytes
Step Temp TotEng Press PotEng c_pe 
      93            0  -0.29605889 -0.0042735991  -0.29605889  -0.29605889 
Loop time of 1.5e-06 on 1 procs for 0 steps with 2 atoms


next i
jump SELF loop

  reset_timestep $i
  reset_timestep 94
  set atom 2 x ${x2}
  set atom 2 x 1.34
  1 settings made for x
  run 0 pre yes post no # force neighborlist rebuild
WARNING: No fixes defined, atoms won't move (src/verlet.cpp:52)
Per MPI rank memory allocation (min/avg/max) = 7.127 | 7.127 | 7.127 Mbytes
Step Temp TotEng Press PotEng c_pe 
      94            0  -0.28579048 -0.0041873747  -0.28579048  -0.28579048 
Loop time of 1.6e-06 on 1 procs for 0 steps with 2 atoms


next i
jump SELF loop

  reset_timestep $i
  reset_timestep 95
  set atom 2 x ${x2}
  set atom 2 x 1.35
  1 settings made for x
  run 0 pre yes post no # force neighborlist rebuild
WARNING: No fixes defined, atoms won't move (src/verlet.cpp:52)
Per MPI rank memory allocation (min/avg/max) = 7.127 | 7.127 | 7.127 Mbytes
Step Temp TotEng Press PotEng c_pe 
      95            0  -0.27581147 -0.0040968995  -0.27581147  -0.27581147 
Loop time of 1.6e-06 on 1 procs for 0 steps with 2 atoms


next i
jump SELF loop

  reset_timestep $i
  reset_timestep 96
  set atom 2 x ${x2}
  set atom 2 x 1.36
  1 settings made for x
  run 0 pre yes post no # force neighborlist rebuild
WARNING: No fixes defined, atoms won't move (src/verlet.cpp:52)
Per MPI rank memory allocation (min/avg/max) = 7.127 | 7.127 | 7.127 Mbytes
Step Temp TotEng Press PotEng c_pe 
      96            0  -0.26612648 -0.0040032094  -0.26612648  -0.26612648 
Loop time of 1.7e-06 on 1 procs for 0 steps with 2 atoms


next i
jump SELF loop

  reset_timestep $i
  reset_timestep 97
  set atom 2 x ${x2}
  set atom 2 x 1.37
  1 settings made for x
  run 0 pre yes post no # force neighborlist rebuild
WARNING: No fixes defined, atoms won't move (src/verlet.cpp:52)
Per MPI rank memory allocation (min/avg/max) = 7.127 | 7.127 | 7.127 Mbytes
Step Temp TotEng Press PotEng c_pe 
      97            0  -0.25673775 -0.0039071959  -0.25673775  -0.25673775 
Loop time of 1.5e-06 on 1 procs for 0 steps with 2 atoms


next i
jump SELF loop

  reset_timestep $i
  reset_timestep 98
  set atom 2 x ${x2}
  set atom 2 x 1.38
  1 settings made for x
  run 0 pre yes post no # force neighborlist rebuild
WARNING: No fixes defined, atoms won't move (src/verlet.cpp:52)
Per MPI rank memory allocation (min/avg/max) = 7.127 | 7.127 | 7.127 Mbytes
Step Temp TotEng Press PotEng c_pe 
      98            0  -0.24764551 -0.003809625  -0.24764551  -0.24764551 
Loop time of 2.4e-06 on 1 procs for 0 steps with 2 atoms


next i
jump SELF loop

  reset_timestep $i
  reset_timestep 99
  set atom 2 x ${x2}
  set atom 2 x 1.39
  1 settings made for x
  run 0 pre yes post no # force neighborlist rebuild
WARNING: No fixes defined, atoms won't move (src/verlet.cpp:52)
Per MPI rank memory allocation (min/avg/max) = 7.127 | 7.127 | 7.127 Mbytes
Step Temp TotEng Press PotEng c_pe 
      99            0  -0.23884835 -0.0037111526  -0.23884835  -0.23884835 
Loop time of 1.5e-06 on 1 procs for 0 steps with 2 atoms


next i
jump SELF loop

  reset_timestep $i
  reset_timestep 100
  set atom 2 x ${x2}
  set atom 2 x 1.4
  1 settings made for x
  run 0 pre yes post no # force neighborlist rebuild
WARNING: No fixes defined, atoms won't move (src/verlet.cpp:52)
Per MPI rank memory allocation (min/avg/max) = 7.127 | 7.127 | 7.127 Mbytes
Step Temp TotEng Press PotEng c_pe 
     100            0  -0.23034346 -0.003612339  -0.23034346  -0.23034346 
Loop time of 1.5e-06 on 1 procs for 0 steps with 2 atoms


next i
jump SELF loop

  reset_timestep $i
  reset_timestep 101
  set atom 2 x ${x2}
  set atom 2 x 1.41
  1 settings made for x
  run 0 pre yes post no # force neighborlist rebuild
WARNING: No fixes defined, atoms won't move (src/verlet.cpp:52)
Per MPI rank memory allocation (min/avg/max) = 7.127 | 7.127 | 7.127 Mbytes
Step Temp TotEng Press PotEng c_pe 
     101            0   -0.2221269 -0.0035136606   -0.2221269   -0.2221269 
Loop time of 1.5e-06 on 1 procs for 0 steps with 2 atoms


next i
jump SELF loop

  reset_timestep $i
  reset_timestep 102
  set atom 2 x ${x2}
  set atom 2 x 1.42
  1 settings made for x
  run 0 pre yes post no # force neighborlist rebuild
WARNING: No fixes defined, atoms won't move (src/verlet.cpp:52)
Per MPI rank memory allocation (min/avg/max) = 7.127 | 7.127 | 7.127 Mbytes
Step Temp TotEng Press PotEng c_pe 
     102            0  -0.21419382 -0.0034155211  -0.21419382  -0.21419382 
Loop time of 1.5e-06 on 1 procs for 0 steps with 2 atoms


next i
jump SELF loop

  reset_timestep $i
  reset_timestep 103
  set atom 2 x ${x2}
  set atom 2 x 1.43
  1 settings made for x
  run 0 pre yes post no # force neighborlist rebuild
WARNING: No fixes defined, atoms won't move (src/verlet.cpp:52)
Per MPI rank memory allocation (min/avg/max) = 7.127 | 7.127 | 7.127 Mbytes
Step Temp TotEng Press PotEng c_pe 
     103            0  -0.20653861 -0.0033182606  -0.20653861  -0.20653861 
Loop time of 1.5e-06 on 1 procs for 0 steps with 2 atoms


next i
jump SELF loop

  reset_timestep $i
  reset_timestep 104
  set atom 2 x ${x2}
  set atom 2 x 1.44
  1 settings made for x
  run 0 pre yes post no # force neighborlist rebuild
WARNING: No fixes defined, atoms won't move (src/verlet.cpp:52)
Per MPI rank memory allocation (min/avg/max) = 7.127 | 7.127 | 7.127 Mbytes
Step Temp TotEng Press PotEng c_pe 
     104            0  -0.19915508 -0.0032221639  -0.19915508  -0.19915508 
Loop time of 1.6e-06 on 1 procs for 0 steps with 2 atoms


next i
jump SELF loop

  reset_timestep $i
  reset_timestep 105
  set atom 2 x ${x2}
  set atom 2 x 1.45
  1 settings made for x
  run 0 pre yes post no # force neighborlist rebuild
WARNING: No fixes defined, atoms won't move (src/verlet.cpp:52)
Per MPI rank memory allocation (min/avg/max) = 7.127 | 7.127 | 7.127 Mbytes
Step Temp TotEng Press PotEng c_pe 
     105            0  -0.19203659 -0.0031274673  -0.19203659  -0.19203659 
Loop time of 1.5e-06 on 1 procs for 0 steps with 2 atoms


next i
jump SELF loop

  reset_timestep $i
  reset_timestep 106
  set atom 2 x ${x2}
  set atom 2 x 1.46
  1 settings made for x
  run 0 pre yes post no # force neighborlist rebuild
WARNING: No fixes defined, atoms won't move (src/verlet.cpp:52)
Per MPI rank memory allocation (min/avg/max) = 7.127 | 7.127 | 7.127 Mbytes
Step Temp TotEng Press PotEng c_pe 
     106            0  -0.18517616 -0.0030343656  -0.18517616  -0.18517616 
Loop time of 1.6e-06 on 1 procs for 0 steps with 2 atoms


next i
jump SELF loop

  reset_timestep $i
  reset_timestep 107
  set atom 2 x ${x2}
  set atom 2 x 1.47
  1 settings made for x
  run 0 pre yes post no # force neighborlist rebuild
WARNING: No fixes defined, atoms won't move (src/verlet.cpp:52)
Per MPI rank memory allocation (min/avg/max) = 7.127 | 7.127 | 7.127 Mbytes
Step Temp TotEng Press PotEng c_pe 
     107            0  -0.17856655 -0.0029430169  -0.17856655  -0.17856655 
Loop time of 1.5e-06 on 1 procs for 0 steps with 2 atoms


next i
jump SELF loop

  reset_timestep $i
  reset_timestep 108
  set atom 2 x ${x2}
  set atom 2 x 1.48
  1 settings made for x
  run 0 pre yes post no # force neighborlist rebuild
WARNING: No fixes defined, atoms won't move (src/verlet.cpp:52)
Per MPI rank memory allocation (min/avg/max) = 7.127 | 7.127 | 7.127 Mbytes
Step Temp TotEng Press PotEng c_pe 
     108            0  -0.17220038 -0.0028535479  -0.17220038  -0.17220038 
Loop time of 1.8e-06 on 1 procs for 0 steps with 2 atoms


next i
jump SELF loop

  reset_timestep $i
  reset_timestep 109
  set atom 2 x ${x2}
  set atom 2 x 1.49
  1 settings made for x
  run 0 pre yes post no # force neighborlist rebuild
WARNING: No fixes defined, atoms won't move (src/verlet.cpp:52)
Per MPI rank memory allocation (min/avg/max) = 7.127 | 7.127 | 7.127 Mbytes
Step Temp TotEng Press PotEng c_pe 
     109            0  -0.16607013 -0.0027660578  -0.16607013  -0.16607013 
Loop time of 1.5e-06 on 1 procs for 0 steps with 2 atoms


next i
jump SELF loop

  reset_timestep $i
  reset_timestep 110
  set atom 2 x ${x2}
  set atom 2 x 1.5
  1 settings made for x
  run 0 pre yes post no # force neighborlist rebuild
WARNING: No fixes defined, atoms won't move (src/verlet.cpp:52)
Per MPI rank memory allocation (min/avg/max) = 7.127 | 7.127 | 7.127 Mbytes
Step Temp TotEng Press PotEng c_pe 
     110            0   -0.1601683 -0.0026806223   -0.1601683   -0.1601683 
Loop time of 1.5e-06 on 1 procs for 0 steps with 2 atoms


next i
jump SELF loop

  reset_timestep $i
  reset_timestep 111
  set atom 2 x ${x2}
  set atom 2 x 1.51
  1 settings made for x
  run 0 pre yes post no # force neighborlist rebuild
WARNING: No fixes defined, atoms won't move (src/verlet.cpp:52)
Per MPI rank memory allocation (min/avg/max) = 7.127 | 7.127 | 7.127 Mbytes
Step Temp TotEng Press PotEng c_pe 
     111            0  -0.15448734 -0.0025972965  -0.15448734  -0.15448734 
Loop time of 1.6e-06 on 1 procs for 0 steps with 2 atoms


next i
jump SELF loop

  reset_timestep $i
  reset_timestep 112
  set atom 2 x ${x2}
  set atom 2 x 1.52
  1 settings made for x
  run 0 pre yes post no # force neighborlist rebuild
WARNING: No fixes defined, atoms won't move (src/verlet.cpp:52)
Per MPI rank memory allocation (min/avg/max) = 7.127 | 7.127 | 7.127 Mbytes
Step Temp TotEng Press PotEng c_pe 
     112            0   -0.1490198 -0.002516118   -0.1490198   -0.1490198 
Loop time of 1.5e-06 on 1 procs for 0 steps with 2 atoms


next i
jump SELF loop

  reset_timestep $i
  reset_timestep 113
  set atom 2 x ${x2}
  set atom 2 x 1.53
  1 settings made for x
  run 0 pre yes post no # force neighborlist rebuild
WARNING: No fixes defined, atoms won't move (src/verlet.cpp:52)
Per MPI rank memory allocation (min/avg/max) = 7.127 | 7.127 | 7.127 Mbytes
Step Temp TotEng Press PotEng c_pe 
     113            0  -0.14375829 -0.0024371094  -0.14375829  -0.14375829 
Loop time of 1.5e-06 on 1 procs for 0 steps with 2 atoms


next i
jump SELF loop

  reset_timestep $i
  reset_timestep 114
  set atom 2 x ${x2}
  set atom 2 x 1.54
  1 settings made for x
  run 0 pre yes post no # force neighborlist rebuild
WARNING: No fixes defined, atoms won't move (src/verlet.cpp:52)
Per MPI rank memory allocation (min/avg/max) = 7.127 | 7.127 | 7.127 Mbytes
Step Temp TotEng Press PotEng c_pe 
     114            0  -0.13869552 -0.0023602803  -0.13869552  -0.13869552 
Loop time of 1.6e-06 on 1 procs for 0 steps with 2 atoms


next i
jump SELF loop

  reset_timestep $i
  reset_timestep 115
  set atom 2 x ${x2}
  set atom 2 x 1.55
  1 settings made for x
  run 0 pre yes post no # force neighborlist rebuild
WARNING: No fixes defined, atoms won't move (src/verlet.cpp:52)
Per MPI rank memory allocation (min/avg/max) = 7.127 | 7.127 | 7.127 Mbytes
Step Temp TotEng Press PotEng c_pe 
     115            0  -0.13382436 -0.0022856292  -0.13382436  -0.13382436 
Loop time of 1.6e-06 on 1 procs for 0 steps with 2 atoms


next i
jump SELF loop

  reset_timestep $i
  reset_timestep 116
  set atom 2 x ${x2}
  set atom 2 x 1.56
  1 settings made for x
  run 0 pre yes post no # force neighborlist rebuild
WARNING: No fixes defined, atoms won't move (src/verlet.cpp:52)
Per MPI rank memory allocation (min/avg/max) = 7.127 | 7.127 | 7.127 Mbytes
Step Temp TotEng Press PotEng c_pe 
     116            0  -0.12913782 -0.0022131453  -0.12913782  -0.12913782 
Loop time of 1.6e-06 on 1 procs for 0 steps with 2 atoms


next i
jump SELF loop

  reset_timestep $i
  reset_timestep 117
  set atom 2 x ${x2}
  set atom 2 x 1.57
  1 settings made for x
  run 0 pre yes post no # force neighborlist rebuild
WARNING: No fixes defined, atoms won't move (src/verlet.cpp:52)
Per MPI rank memory allocation (min/avg/max) = 7.127 | 7.127 | 7.127 Mbytes
Step Temp TotEng Press PotEng c_pe 
     117            0  -0.12462905 -0.0021428099  -0.12462905  -0.12462905 
Loop time of 1.8e-06 on 1 procs for 0 steps with 2 atoms


next i
jump SELF loop

  reset_timestep $i
  reset_timestep 118
  set atom 2 x ${x2}
  set atom 2 x 1.58
  1 settings made for x
  run 0 pre yes post no # force neighborlist rebuild
WARNING: No fixes defined, atoms won't move (src/verlet.cpp:52)
Per MPI rank memory allocation (min/avg/max) = 7.127 | 7.127 | 7.127 Mbytes
Step Temp TotEng Press PotEng c_pe 
     118            0  -0.12029142 -0.0020745978  -0.12029142  -0.12029142 
Loop time of 1.6e-06 on 1 procs for 0 steps with 2 atoms


next i
jump SELF loop

  reset_timestep $i
  reset_timestep 119
  set atom 2 x ${x2}
  set atom 2 x 1.59
  1 settings made for x
  run 0 pre yes post no # force neighborlist rebuild
WARNING: No fixes defined, atoms won't move (src/verlet.cpp:52)
Per MPI rank memory allocation (min/avg/max) = 7.127 | 7.127 | 7.127 Mbytes
Step Temp TotEng Press PotEng c_pe 
     119            0  -0.11611845 -0.0020084781  -0.11611845  -0.11611845 
Loop time of 1.5e-06 on 1 procs for 0 steps with 2 atoms


next i
jump SELF loop

  reset_timestep $i
  reset_timestep 120
  set atom 2 x ${x2}
  set atom 2 x 1.6
  1 settings made for x
  run 0 pre yes post no # force neighborlist rebuild
WARNING: No fixes defined, atoms won't move (src/verlet.cpp:52)
Per MPI rank memory allocation (min/avg/max) = 7.127 | 7.127 | 7.127 Mbytes
Step Temp TotEng Press PotEng c_pe 
     120            0  -0.11210386 -0.0019444155  -0.11210386  -0.11210386 
Loop time of 1.5e-06 on 1 procs for 0 steps with 2 atoms


next i
jump SELF loop

  reset_timestep $i
  reset_timestep 121
  set atom 2 x ${x2}
  set atom 2 x 1.61
  1 settings made for x
  run 0 pre yes post no # force neighborlist rebuild
WARNING: No fixes defined, atoms won't move (src/verlet.cpp:52)
Per MPI rank memory allocation (min/avg/max) = 7.127 | 7.127 | 7.127 Mbytes
Step Temp TotEng Press PotEng c_pe 
     121            0  -0.10824157 -0.0018823707  -0.10824157  -0.10824157 
Loop time of 1.6e-06 on 1 procs for 0 steps with 2 atoms


next i
jump SELF loop

  reset_timestep $i
  reset_timestep 122
  set atom 2 x ${x2}
  set atom 2 x 1.62
  1 settings made for x
  run 0 pre yes post no # force neighborlist rebuild
WARNING: No fixes defined, atoms won't move (src/verlet.cpp:52)
Per MPI rank memory allocation (min/avg/max) = 7.127 | 7.127 | 7.127 Mbytes
Step Temp TotEng Press PotEng c_pe 
     122            0  -0.10452568 -0.0018223017  -0.10452568  -0.10452568 
Loop time of 1.5e-06 on 1 procs for 0 steps with 2 atoms


next i
jump SELF loop

  reset_timestep $i
  reset_timestep 123
  set atom 2 x ${x2}
  set atom 2 x 1.63
  1 settings made for x
  run 0 pre yes post no # force neighborlist rebuild
WARNING: No fixes defined, atoms won't move (src/verlet.cpp:52)
Per MPI rank memory allocation (min/avg/max) = 7.127 | 7.127 | 7.127 Mbytes
Step Temp TotEng Press PotEng c_pe 
     123            0   -0.1009505 -0.0017641642   -0.1009505   -0.1009505 
Loop time of 1.5e-06 on 1 procs for 0 steps with 2 atoms


next i
jump SELF loop

  reset_timestep $i
  reset_timestep 124
  set atom 2 x ${x2}
  set atom 2 x 1.64
  1 settings made for x
  run 0 pre yes post no # force neighborlist rebuild
WARNING: No fixes defined, atoms won't move (src/verlet.cpp:52)
Per MPI rank memory allocation (min/avg/max) = 7.127 | 7.127 | 7.127 Mbytes
Step Temp TotEng Press PotEng c_pe 
     124            0 -0.097510514 -0.0017079117 -0.097510514 -0.097510514 
Loop time of 1.5e-06 on 1 procs for 0 steps with 2 atoms


next i
jump SELF loop

  reset_timestep $i
  reset_timestep 125
  set atom 2 x ${x2}
  set atom 2 x 1.65
  1 settings made for x
  run 0 pre yes post no # force neighborlist rebuild
WARNING: No fixes defined, atoms won't move (src/verlet.cpp:52)
Per MPI rank memory allocation (min/avg/max) = 7.127 | 7.127 | 7.127 Mbytes
Step Temp TotEng Press PotEng c_pe 
     125            0 -0.094200424 -0.0016534968 -0.094200424 -0.094200424 
Loop time of 1.8e-06 on 1 procs for 0 steps with 2 atoms


next i
jump SELF loop

  reset_timestep $i
  reset_timestep 126
  set atom 2 x ${x2}
  set atom 2 x 1.66
  1 settings made for x
  run 0 pre yes post no # force neighborlist rebuild
WARNING: No fixes defined, atoms won't move (src/verlet.cpp:52)
Per MPI rank memory allocation (min/avg/max) = 7.127 | 7.127 | 7.127 Mbytes
Step Temp TotEng Press PotEng c_pe 
     126            0 -0.091015106 -0.001600871 -0.091015106 -0.091015106 
Loop time of 1.6e-06 on 1 procs for 0 steps with 2 atoms


next i
jump SELF loop

  reset_timestep $i
  reset_timestep 127
  set atom 2 x ${x2}
  set atom 2 x 1.67
  1 settings made for x
  run 0 pre yes post no # force neighborlist rebuild
WARNING: No fixes defined, atoms won't move (src/verlet.cpp:52)
Per MPI rank memory allocation (min/avg/max) = 7.127 | 7.127 | 7.127 Mbytes
Step Temp TotEng Press PotEng c_pe 
     127            0 -0.087949628 -0.0015499852 -0.087949628 -0.087949628 
Loop time of 1.5e-06 on 1 procs for 0 steps with 2 atoms


next i
jump SELF loop

  reset_timestep $i
  reset_timestep 128
  set atom 2 x ${x2}
  set atom 2 x 1.68
  1 settings made for x
  run 0 pre yes post no # force neighborlist rebuild
WARNING: No fixes defined, atoms won't move (src/verlet.cpp:52)
Per MPI rank memory allocation (min/avg/max) = 7.127 | 7.127 | 7.127 Mbytes
Step Temp TotEng Press PotEng c_pe 
     128            0 -0.084999239 -0.0015007902 -0.084999239 -0.084999239 
Loop time of 1.5e-06 on 1 procs for 0 steps with 2 atoms


next i
jump SELF loop

  reset_timestep $i
  reset_timestep 129
  set atom 2 x ${x2}
  set atom 2 x 1.69
  1 settings made for x
  run 0 pre yes post no # force neighborlist rebuild
WARNING: No fixes defined, atoms won't move (src/verlet.cpp:52)
Per MPI rank memory allocation (min/avg/max) = 7.127 | 7.127 | 7.127 Mbytes
Step Temp TotEng Press PotEng c_pe 
     129            0 -0.082159372 -0.0014532366 -0.082159372 -0.082159372 
Loop time of 1.5e-06 on 1 procs for 0 steps with 2 atoms


next i
jump SELF loop

  reset_timestep $i
  reset_timestep 130
  set atom 2 x ${x2}
  set atom 2 x 1.7
  1 settings made for x
  run 0 pre yes post no # force neighborlist rebuild
WARNING: No fixes defined, atoms won't move (src/verlet.cpp:52)
Per MPI rank memory allocation (min/avg/max) = 7.127 | 7.127 | 7.127 Mbytes
Step Temp TotEng Press PotEng c_pe 
     130            0  -0.07942563 -0.0014072754  -0.07942563  -0.07942563 
Loop time of 1.7e-06 on 1 procs for 0 steps with 2 atoms


next i
jump SELF loop

  reset_timestep $i
  reset_timestep 131
  set atom 2 x ${x2}
  set atom 2 x 1.71
  1 settings made for x
  run 0 pre yes post no # force neighborlist rebuild
WARNING: No fixes defined, atoms won't move (src/verlet.cpp:52)
Per MPI rank memory allocation (min/avg/max) = 7.127 | 7.127 | 7.127 Mbytes
Step Temp TotEng Press PotEng c_pe 
     131            0 -0.076793789 -0.0013628579 -0.076793789 -0.076793789 
Loop time of 1.6e-06 on 1 procs for 0 steps with 2 atoms


next i
jump SELF loop

  reset_timestep $i
  reset_timestep 132
  set atom 2 x ${x2}
  set atom 2 x 1.72
  1 settings made for x
  run 0 pre yes post no # force neighborlist rebuild
WARNING: No fixes defined, atoms won't move (src/verlet.cpp:52)
Per MPI rank memory allocation (min/avg/max) = 7.127 | 7.127 | 7.127 Mbytes
Step Temp TotEng Press PotEng c_pe 
     132            0 -0.074259789 -0.001319936 -0.074259789 -0.074259789 
Loop time of 1.5e-06 on 1 procs for 0 steps with 2 atoms


next i
jump SELF loop

  reset_timestep $i
  reset_timestep 133
  set atom 2 x ${x2}
  set atom 2 x 1.73
  1 settings made for x
  run 0 pre yes post no # force neighborlist rebuild
WARNING: No fixes defined, atoms won't move (src/verlet.cpp:52)
Per MPI rank memory allocation (min/avg/max) = 7.127 | 7.127 | 7.127 Mbytes
Step Temp TotEng Press PotEng c_pe 
     133            0 -0.071819733 -0.0012784623 -0.071819733 -0.071819733 
Loop time of 1.6e-06 on 1 procs for 0 steps with 2 atoms


next i
jump SELF loop

  reset_timestep $i
  reset_timestep 134
  set atom 2 x ${x2}
  set atom 2 x 1.74
  1 settings made for x
  run 0 pre yes post no # force neighborlist rebuild
WARNING: No fixes defined, atoms won't move (src/verlet.cpp:52)
Per MPI rank memory allocation (min/avg/max) = 7.127 | 7.127 | 7.127 Mbytes
Step Temp TotEng Press PotEng c_pe 
     134            0 -0.069469875 -0.0012383902 -0.069469875 -0.069469875 
Loop time of 1.7e-06 on 1 procs for 0 steps with 2 atoms


next i
jump SELF loop

  reset_timestep $i
  reset_timestep 135
  set atom 2 x ${x2}
  set atom 2 x 1.75
  1 settings made for x
  run 0 pre yes post no # force neighborlist rebuild
WARNING: No fixes defined, atoms won't move (src/verlet.cpp:52)
Per MPI rank memory allocation (min/avg/max) = 7.127 | 7.127 | 7.127 Mbytes
Step Temp TotEng Press PotEng c_pe 
     135            0 -0.067206623 -0.001199674 -0.067206623 -0.067206623 
Loop time of 1.6e-06 on 1 procs for 0 steps with 2 atoms


next i
jump SELF loop

  reset_timestep $i
  reset_timestep 136
  set atom 2 x ${x2}
  set atom 2 x 1.76
  1 settings made for x
  run 0 pre yes post no # force neighborlist rebuild
WARNING: No fixes defined, atoms won't move (src/verlet.cpp:52)
Per MPI rank memory allocation (min/avg/max) = 7.127 | 7.127 | 7.127 Mbytes
Step Temp TotEng Press PotEng c_pe 
     136            0 -0.065026528 -0.0011622689 -0.065026528 -0.065026528 
Loop time of 1.5e-06 on 1 procs for 0 steps with 2 atoms


next i
jump SELF loop

  reset_timestep $i
  reset_timestep 137
  set atom 2 x ${x2}
  set atom 2 x 1.77
  1 settings made for x
  run 0 pre yes post no # force neighborlist rebuild
WARNING: No fixes defined, atoms won't move (src/verlet.cpp:52)
Per MPI rank memory allocation (min/avg/max) = 7.127 | 7.127 | 7.127 Mbytes
Step Temp TotEng Press PotEng c_pe 
     137            0  -0.06292628 -0.0011261312  -0.06292628  -0.06292628 
Loop time of 1.6e-06 on 1 procs for 0 steps with 2 atoms


next i
jump SELF loop

  reset_timestep $i
  reset_timestep 138
  set atom 2 x ${x2}
  set atom 2 x 1.78
  1 settings made for x
  run 0 pre yes post no # force neighborlist rebuild
WARNING: No fixes defined, atoms won't move (src/verlet.cpp:52)
Per MPI rank memory allocation (min/avg/max) = 7.127 | 7.127 | 7.127 Mbytes
Step Temp TotEng Press PotEng c_pe 
     138            0 -0.060902707 -0.0010912182 -0.060902707 -0.060902707 
Loop time of 1.6e-06 on 1 procs for 0 steps with 2 atoms


next i
jump SELF loop

  reset_timestep $i
  reset_timestep 139
  set atom 2 x ${x2}
  set atom 2 x 1.79
  1 settings made for x
  run 0 pre yes post no # force neighborlist rebuild
WARNING: No fixes defined, atoms won't move (src/verlet.cpp:52)
Per MPI rank memory allocation (min/avg/max) = 7.127 | 7.127 | 7.127 Mbytes
Step Temp TotEng Press PotEng c_pe 
     139            0 -0.058952762 -0.0010574884 -0.058952762 -0.058952762 
Loop time of 1.5e-06 on 1 procs for 0 steps with 2 atoms


next i
jump SELF loop

  reset_timestep $i
  reset_timestep 140
  set atom 2 x ${x2}
  set atom 2 x 1.8
  1 settings made for x
  run 0 pre yes post no # force neighborlist rebuild
WARNING: No fixes defined, atoms won't move (src/verlet.cpp:52)
Per MPI rank memory allocation (min/avg/max) = 7.127 | 7.127 | 7.127 Mbytes
Step Temp TotEng Press PotEng c_pe 
     140            0 -0.057073528 -0.0010249012 -0.057073528 -0.057073528 
Loop time of 1.5e-06 on 1 procs for 0 steps with 2 atoms


next i
jump SELF loop

  reset_timestep $i
  reset_timestep 141
  set atom 2 x ${x2}
  set atom 2 x 1.81
  1 settings made for x
  run 0 pre yes post no # force neighborlist rebuild
WARNING: No fixes defined, atoms won't move (src/verlet.cpp:52)
Per MPI rank memory allocation (min/avg/max) = 7.127 | 7.127 | 7.127 Mbytes
Step Temp TotEng Press PotEng c_pe 
     141            0 -0.055262204 -0.0009934175 -0.055262204 -0.055262204 
Loop time of 1.5e-06 on 1 procs for 0 steps with 2 atoms


next i
jump SELF loop

  reset_timestep $i
  reset_timestep 142
  set atom 2 x ${x2}
  set atom 2 x 1.82
  1 settings made for x
  run 0 pre yes post no # force neighborlist rebuild
WARNING: No fixes defined, atoms won't move (src/verlet.cpp:52)
Per MPI rank memory allocation (min/avg/max) = 7.127 | 7.127 | 7.127 Mbytes
Step Temp TotEng Press PotEng c_pe 
     142            0 -0.053516108 -0.00096299893 -0.053516108 -0.053516108 
Loop time of 1.7e-06 on 1 procs for 0 steps with 2 atoms


next i
jump SELF loop

  reset_timestep $i
  reset_timestep 143
  set atom 2 x ${x2}
  set atom 2 x 1.83
  1 settings made for x
  run 0 pre yes post no # force neighborlist rebuild
WARNING: No fixes defined, atoms won't move (src/verlet.cpp:52)
Per MPI rank memory allocation (min/avg/max) = 7.127 | 7.127 | 7.127 Mbytes
Step Temp TotEng Press PotEng c_pe 
     143            0 -0.051832665 -0.0009336085 -0.051832665 -0.051832665 
Loop time of 1.5e-06 on 1 procs for 0 steps with 2 atoms


next i
jump SELF loop

  reset_timestep $i
  reset_timestep 144
  set atom 2 x ${x2}
  set atom 2 x 1.84
  1 settings made for x
  run 0 pre yes post no # force neighborlist rebuild
WARNING: No fixes defined, atoms won't move (src/verlet.cpp:52)
Per MPI rank memory allocation (min/avg/max) = 7.127 | 7.127 | 7.127 Mbytes
Step Temp TotEng Press PotEng c_pe 
     144            0  -0.05020941 -0.00090521028  -0.05020941  -0.05020941 
Loop time of 1.5e-06 on 1 procs for 0 steps with 2 atoms


next i
jump SELF loop

  reset_timestep $i
  reset_timestep 145
  set atom 2 x ${x2}
  set atom 2 x 1.85
  1 settings made for x
  run 0 pre yes post no # force neighborlist rebuild
WARNING: No fixes defined, atoms won't move (src/verlet.cpp:52)
Per MPI rank memory allocation (min/avg/max) = 7.127 | 7.127 | 7.127 Mbytes
Step Temp TotEng Press PotEng c_pe 
     145            0 -0.048643979 -0.00087776949 -0.048643979 -0.048643979 
Loop time of 1.6e-06 on 1 procs for 0 steps with 2 atoms


next i
jump SELF loop

  reset_timestep $i
  reset_timestep 146
  set atom 2 x ${x2}
  set atom 2 x 1.86
  1 settings made for x
  run 0 pre yes post no # force neighborlist rebuild
WARNING: No fixes defined, atoms won't move (src/verlet.cpp:52)
Per MPI rank memory allocation (min/avg/max) = 7.127 | 7.127 | 7.127 Mbytes
Step Temp TotEng Press PotEng c_pe 
     146            0 -0.047134105 -0.00085125245 -0.047134105 -0.047134105 
Loop time of 1.5e-06 on 1 procs for 0 steps with 2 atoms


next i
jump SELF loop

  reset_timestep $i
  reset_timestep 147
  set atom 2 x ${x2}
  set atom 2 x 1.87
  1 settings made for x
  run 0 pre yes post no # force neighborlist rebuild
WARNING: No fixes defined, atoms won't move (src/verlet.cpp:52)
Per MPI rank memory allocation (min/avg/max) = 7.127 | 7.127 | 7.127 Mbytes
Step Temp TotEng Press PotEng c_pe 
     147            0 -0.045677617 -0.00082562657 -0.045677617 -0.045677617 
Loop time of 1.5e-06 on 1 procs for 0 steps with 2 atoms


next i
jump SELF loop

  reset_timestep $i
  reset_timestep 148
  set atom 2 x ${x2}
  set atom 2 x 1.88
  1 settings made for x
  run 0 pre yes post no # force neighborlist rebuild
WARNING: No fixes defined, atoms won't move (src/verlet.cpp:52)
Per MPI rank memory allocation (min/avg/max) = 7.127 | 7.127 | 7.127 Mbytes
Step Temp TotEng Press PotEng c_pe 
     148            0 -0.044272431 -0.00080086034 -0.044272431 -0.044272431 
Loop time of 1.5e-06 on 1 procs for 0 steps with 2 atoms


next i
jump SELF loop

  reset_timestep $i
  reset_timestep 149
  set atom 2 x ${x2}
  set atom 2 x 1.89
  1 settings made for x
  run 0 pre yes post no # force neighborlist rebuild
WARNING: No fixes defined, atoms won't move (src/verlet.cpp:52)
Per MPI rank memory allocation (min/avg/max) = 7.127 | 7.127 | 7.127 Mbytes
Step Temp TotEng Press PotEng c_pe 
     149            0 -0.042916553 -0.00077692332 -0.042916553 -0.042916553 
Loop time of 1.6e-06 on 1 procs for 0 steps with 2 atoms


next i
jump SELF loop

  reset_timestep $i
  reset_timestep 150
  set atom 2 x ${x2}
  set atom 2 x 1.9
  1 settings made for x
  run 0 pre yes post no # force neighborlist rebuild
WARNING: No fixes defined, atoms won't move (src/verlet.cpp:52)
Per MPI rank memory allocation (min/avg/max) = 7.127 | 7.127 | 7.127 Mbytes
Step Temp TotEng Press PotEng c_pe 
     150            0  -0.04160807 -0.00075378607  -0.04160807  -0.04160807 
Loop time of 2e-06 on 1 procs for 0 steps with 2 atoms


next i
jump SELF loop

  reset_timestep $i
  reset_timestep 151
  set atom 2 x ${x2}
  set atom 2 x 1.91
  1 settings made for x
  run 0 pre yes post no # force neighborlist rebuild
WARNING: No fixes defined, atoms won't move (src/verlet.cpp:52)
Per MPI rank memory allocation (min/avg/max) = 7.127 | 7.127 | 7.127 Mbytes
Step Temp TotEng Press PotEng c_pe 
     151            0 -0.040345148 -0.00073142021 -0.040345148 -0.040345148 
Loop time of 1.6e-06 on 1 procs for 0 steps with 2 atoms


next i
jump SELF loop

  reset_timestep $i
  reset_timestep 152
  set atom 2 x ${x2}
  set atom 2 x 1.92
  1 settings made for x
  run 0 pre yes post no # force neighborlist rebuild
WARNING: No fixes defined, atoms won't move (src/verlet.cpp:52)
Per MPI rank memory allocation (min/avg/max) = 7.127 | 7.127 | 7.127 Mbytes
Step Temp TotEng Press PotEng c_pe 
     152            0 -0.039126029 -0.0007097983 -0.039126029 -0.039126029 
Loop time of 1.7e-06 on 1 procs for 0 steps with 2 atoms


next i
jump SELF loop

  reset_timestep $i
  reset_timestep 153
  set atom 2 x ${x2}
  set atom 2 x 1.93
  1 settings made for x
  run 0 pre yes post no # force neighborlist rebuild
WARNING: No fixes defined, atoms won't move (src/verlet.cpp:52)
Per MPI rank memory allocation (min/avg/max) = 7.127 | 7.127 | 7.127 Mbytes
Step Temp TotEng Press PotEng c_pe 
     153            0 -0.037949029 -0.00068889387 -0.037949029 -0.037949029 
Loop time of 1.7e-06 on 1 procs for 0 steps with 2 atoms


next i
jump SELF loop

  reset_timestep $i
  reset_timestep 154
  set atom 2 x ${x2}
  set atom 2 x 1.94
  1 settings made for x
  run 0 pre yes post no # force neighborlist rebuild
WARNING: No fixes defined, atoms won't move (src/verlet.cpp:52)
Per MPI rank memory allocation (min/avg/max) = 7.127 | 7.127 | 7.127 Mbytes
Step Temp TotEng Press PotEng c_pe 
     154            0 -0.036812532 -0.00066868142 -0.036812532 -0.036812532 
Loop time of 1.5e-06 on 1 procs for 0 steps with 2 atoms


next i
jump SELF loop

  reset_timestep $i
  reset_timestep 155
  set atom 2 x ${x2}
  set atom 2 x 1.95
  1 settings made for x
  run 0 pre yes post no # force neighborlist rebuild
WARNING: No fixes defined, atoms won't move (src/verlet.cpp:52)
Per MPI rank memory allocation (min/avg/max) = 7.127 | 7.127 | 7.127 Mbytes
Step Temp TotEng Press PotEng c_pe 
     155            0 -0.035714989 -0.0006491363 -0.035714989 -0.035714989 
Loop time of 1.5e-06 on 1 procs for 0 steps with 2 atoms


next i
jump SELF loop

  reset_timestep $i
  reset_timestep 156
  set atom 2 x ${x2}
  set atom 2 x 1.96
  1 settings made for x
  run 0 pre yes post no # force neighborlist rebuild
WARNING: No fixes defined, atoms won't move (src/verlet.cpp:52)
Per MPI rank memory allocation (min/avg/max) = 7.127 | 7.127 | 7.127 Mbytes
Step Temp TotEng Press PotEng c_pe 
     156            0 -0.034654917 -0.00063023479 -0.034654917 -0.034654917 
Loop time of 1.6e-06 on 1 procs for 0 steps with 2 atoms


next i
jump SELF loop

  reset_timestep $i
  reset_timestep 157
[...]
Per MPI rank memory allocation (min/avg/max) = 7.127 | 7.127 | 7.127 Mbytes
Step Temp TotEng Press PotEng c_pe 
     480            0    21.474436   0.93663456    21.474436    21.474436 
Loop time of 1.6e-06 on 1 procs for 0 steps with 2 atoms


next i
jump SELF loop

  reset_timestep $i
  reset_timestep 481
  set atom 2 x ${x2}
  set atom 2 x 5.21
  1 settings made for x
  run 0 pre yes post no # force neighborlist rebuild
WARNING: No fixes defined, atoms won't move (src/verlet.cpp:52)
Per MPI rank memory allocation (min/avg/max) = 7.127 | 7.127 | 7.127 Mbytes
Step Temp TotEng Press PotEng c_pe 
     481            0    25.618317    1.1011875    25.618317    25.618317 
Loop time of 1.6e-06 on 1 procs for 0 steps with 2 atoms


next i
jump SELF loop

  reset_timestep $i
  reset_timestep 482
  set atom 2 x ${x2}
  set atom 2 x 5.22
  1 settings made for x
  run 0 pre yes post no # force neighborlist rebuild
WARNING: No fixes defined, atoms won't move (src/verlet.cpp:52)
Per MPI rank memory allocation (min/avg/max) = 7.127 | 7.127 | 7.127 Mbytes
Step Temp TotEng Press PotEng c_pe 
     482            0    30.555163    1.2961358    30.555163    30.555163 
Loop time of 1.5e-06 on 1 procs for 0 steps with 2 atoms


next i
jump SELF loop

  reset_timestep $i
  reset_timestep 483
  set atom 2 x ${x2}
  set atom 2 x 5.23
  1 settings made for x
  run 0 pre yes post no # force neighborlist rebuild
WARNING: No fixes defined, atoms won't move (src/verlet.cpp:52)
Per MPI rank memory allocation (min/avg/max) = 7.127 | 7.127 | 7.127 Mbytes
Step Temp TotEng Press PotEng c_pe 
     483            0    36.444735    1.5275068    36.444735    36.444735 
Loop time of 1.5e-06 on 1 procs for 0 steps with 2 atoms


next i
jump SELF loop

  reset_timestep $i
  reset_timestep 484
  set atom 2 x ${x2}
  set atom 2 x 5.24
  1 settings made for x
  run 0 pre yes post no # force neighborlist rebuild
WARNING: No fixes defined, atoms won't move (src/verlet.cpp:52)
Per MPI rank memory allocation (min/avg/max) = 7.127 | 7.127 | 7.127 Mbytes
Step Temp TotEng Press PotEng c_pe 
     484            0    43.481236    1.8026167    43.481236    43.481236 
Loop time of 1.5e-06 on 1 procs for 0 steps with 2 atoms


next i
jump SELF loop

  reset_timestep $i
  reset_timestep 485
  set atom 2 x ${x2}
  set atom 2 x 5.25
  1 settings made for x
  run 0 pre yes post no # force neighborlist rebuild
WARNING: No fixes defined, atoms won't move (src/verlet.cpp:52)
Per MPI rank memory allocation (min/avg/max) = 7.127 | 7.127 | 7.127 Mbytes
Step Temp TotEng Press PotEng c_pe 
     485            0    51.901272    2.1303677    51.901272    51.901272 
Loop time of 1.6e-06 on 1 procs for 0 steps with 2 atoms


next i
jump SELF loop

  reset_timestep $i
  reset_timestep 486
  set atom 2 x ${x2}
  set atom 2 x 5.26
  1 settings made for x
  run 0 pre yes post no # force neighborlist rebuild
WARNING: No fixes defined, atoms won't move (src/verlet.cpp:52)
Per MPI rank memory allocation (min/avg/max) = 7.127 | 7.127 | 7.127 Mbytes
Step Temp TotEng Press PotEng c_pe 
     486            0    61.993814    2.5216188    61.993814    61.993814 
Loop time of 1.7e-06 on 1 procs for 0 steps with 2 atoms


next i
jump SELF loop

  reset_timestep $i
  reset_timestep 487
  set atom 2 x ${x2}
  set atom 2 x 5.27
  1 settings made for x
  run 0 pre yes post no # force neighborlist rebuild
WARNING: No fixes defined, atoms won't move (src/verlet.cpp:52)
Per MPI rank memory allocation (min/avg/max) = 7.127 | 7.127 | 7.127 Mbytes
Step Temp TotEng Press PotEng c_pe 
     487            0    74.112653    2.9896498    74.112653    74.112653 
Loop time of 1.6e-06 on 1 procs for 0 steps with 2 atoms


next i
jump SELF loop

  reset_timestep $i
  reset_timestep 488
  set atom 2 x ${x2}
  set atom 2 x 5.28
  1 settings made for x
  run 0 pre yes post no # force neighborlist rebuild
WARNING: No fixes defined, atoms won't move (src/verlet.cpp:52)
Per MPI rank memory allocation (min/avg/max) = 7.127 | 7.127 | 7.127 Mbytes
Step Temp TotEng Press PotEng c_pe 
     488            0     88.69206    3.5507439     88.69206     88.69206 
Loop time of 1.7e-06 on 1 procs for 0 steps with 2 atoms


next i
jump SELF loop

  reset_timestep $i
  reset_timestep 489
  set atom 2 x ${x2}
  set atom 2 x 5.29
  1 settings made for x
  run 0 pre yes post no # force neighborlist rebuild
WARNING: No fixes defined, atoms won't move (src/verlet.cpp:52)
Per MPI rank memory allocation (min/avg/max) = 7.127 | 7.127 | 7.127 Mbytes
Step Temp TotEng Press PotEng c_pe 
     489            0    106.26649    4.2249214    106.26649    106.26649 
Loop time of 1.6e-06 on 1 procs for 0 steps with 2 atoms


next i
jump SELF loop

  reset_timestep $i
  reset_timestep 490
  set atom 2 x ${x2}
  set atom 2 x 5.3
  1 settings made for x
  run 0 pre yes post no # force neighborlist rebuild
WARNING: No fixes defined, atoms won't move (src/verlet.cpp:52)
Per MPI rank memory allocation (min/avg/max) = 7.127 | 7.127 | 7.127 Mbytes
Step Temp TotEng Press PotEng c_pe 
     490            0    127.49551    5.0368656    127.49551    127.49551 
Loop time of 1.7e-06 on 1 procs for 0 steps with 2 atoms


next i
jump SELF loop

  reset_timestep $i
  reset_timestep 491
  set atom 2 x ${x2}
  set atom 2 x 5.31
  1 settings made for x
  run 0 pre yes post no # force neighborlist rebuild
WARNING: No fixes defined, atoms won't move (src/verlet.cpp:52)
Per MPI rank memory allocation (min/avg/max) = 7.127 | 7.127 | 7.127 Mbytes
Step Temp TotEng Press PotEng c_pe 
     491            0    153.19536    6.0170977    153.19536    153.19536 
Loop time of 1.9e-06 on 1 procs for 0 steps with 2 atoms


next i
jump SELF loop

  reset_timestep $i
  reset_timestep 492
  set atom 2 x ${x2}
  set atom 2 x 5.32
  1 settings made for x
  run 0 pre yes post no # force neighborlist rebuild
WARNING: No fixes defined, atoms won't move (src/verlet.cpp:52)
Per MPI rank memory allocation (min/avg/max) = 7.127 | 7.127 | 7.127 Mbytes
Step Temp TotEng Press PotEng c_pe 
     492            0    184.37911    7.2034687    184.37911    184.37911 
Loop time of 1.8e-06 on 1 procs for 0 steps with 2 atoms


next i
jump SELF loop

  reset_timestep $i
  reset_timestep 493
  set atom 2 x ${x2}
  set atom 2 x 5.33
  1 settings made for x
  run 0 pre yes post no # force neighborlist rebuild
WARNING: No fixes defined, atoms won't move (src/verlet.cpp:52)
Per MPI rank memory allocation (min/avg/max) = 7.127 | 7.127 | 7.127 Mbytes
Step Temp TotEng Press PotEng c_pe 
     493            0    222.30792    8.6430641    222.30792    222.30792 
Loop time of 1.6e-06 on 1 procs for 0 steps with 2 atoms


next i
jump SELF loop

  reset_timestep $i
  reset_timestep 494
  set atom 2 x ${x2}
  set atom 2 x 5.34
  1 settings made for x
  run 0 pre yes post no # force neighborlist rebuild
WARNING: No fixes defined, atoms won't move (src/verlet.cpp:52)
Per MPI rank memory allocation (min/avg/max) = 7.127 | 7.127 | 7.127 Mbytes
Step Temp TotEng Press PotEng c_pe 
     494            0    268.55668    10.394641    268.55668    268.55668 
Loop time of 2e-06 on 1 procs for 0 steps with 2 atoms


next i
jump SELF loop

  reset_timestep $i
  reset_timestep 495
  set atom 2 x ${x2}
  set atom 2 x 5.35
  1 settings made for x
  run 0 pre yes post no # force neighborlist rebuild
WARNING: No fixes defined, atoms won't move (src/verlet.cpp:52)
Per MPI rank memory allocation (min/avg/max) = 7.127 | 7.127 | 7.127 Mbytes
Step Temp TotEng Press PotEng c_pe 
     495            0    325.09832    12.531763    325.09832    325.09832 
Loop time of 1.6e-06 on 1 procs for 0 steps with 2 atoms


next i
jump SELF loop

  reset_timestep $i
  reset_timestep 496
  set atom 2 x ${x2}
  set atom 2 x 5.36
  1 settings made for x
  run 0 pre yes post no # force neighborlist rebuild
WARNING: No fixes defined, atoms won't move (src/verlet.cpp:52)
Per MPI rank memory allocation (min/avg/max) = 7.127 | 7.127 | 7.127 Mbytes
Step Temp TotEng Press PotEng c_pe 
     496            0    394.41264    15.146835    394.41264    394.41264 
Loop time of 1.6e-06 on 1 procs for 0 steps with 2 atoms


next i
jump SELF loop

  reset_timestep $i
  reset_timestep 497
  set atom 2 x ${x2}
  set atom 2 x 5.37
  1 settings made for x
  run 0 pre yes post no # force neighborlist rebuild
WARNING: No fixes defined, atoms won't move (src/verlet.cpp:52)
Per MPI rank memory allocation (min/avg/max) = 7.127 | 7.127 | 7.127 Mbytes
Step Temp TotEng Press PotEng c_pe 
     497            0    479.62719     18.35634    479.62719    479.62719 
Loop time of 1.5e-06 on 1 procs for 0 steps with 2 atoms


next i
jump SELF loop

  reset_timestep $i
  reset_timestep 498
  set atom 2 x ${x2}
  set atom 2 x 5.38
  1 settings made for x
  run 0 pre yes post no # force neighborlist rebuild
WARNING: No fixes defined, atoms won't move (src/verlet.cpp:52)
Per MPI rank memory allocation (min/avg/max) = 7.127 | 7.127 | 7.127 Mbytes
Step Temp TotEng Press PotEng c_pe 
     498            0    584.70042    22.307629    584.70042    584.70042 
Loop time of 1.6e-06 on 1 procs for 0 steps with 2 atoms


next i
jump SELF loop

  reset_timestep $i
  reset_timestep 499
  set atom 2 x ${x2}
  set atom 2 x 5.39
  1 settings made for x
  run 0 pre yes post no # force neighborlist rebuild
WARNING: No fixes defined, atoms won't move (src/verlet.cpp:52)
Per MPI rank memory allocation (min/avg/max) = 7.127 | 7.127 | 7.127 Mbytes
Step Temp TotEng Press PotEng c_pe 
     499            0    714.66083    27.187801    714.66083    714.66083 
Loop time of 1.5e-06 on 1 procs for 0 steps with 2 atoms


next i
jump SELF loop

  reset_timestep $i
  reset_timestep 500
  set atom 2 x ${x2}
  set atom 2 x 5.4
  1 settings made for x
  run 0 pre yes post no # force neighborlist rebuild
WARNING: No fixes defined, atoms won't move (src/verlet.cpp:52)
Per MPI rank memory allocation (min/avg/max) = 7.127 | 7.127 | 7.127 Mbytes
Step Temp TotEng Press PotEng c_pe 
     500            0    875.92037    33.235328    875.92037    875.92037 
Loop time of 1.6e-06 on 1 procs for 0 steps with 2 atoms


next i
jump SELF loop

  reset_timestep $i
  reset_timestep 501
  set atom 2 x ${x2}
  set atom 2 x 5.41
  1 settings made for x
  run 0 pre yes post no # force neighborlist rebuild
WARNING: No fixes defined, atoms won't move (src/verlet.cpp:52)
Per MPI rank memory allocation (min/avg/max) = 7.127 | 7.127 | 7.127 Mbytes
Step Temp TotEng Press PotEng c_pe 
     501            0    1076.6871     40.75536    1076.6871    1076.6871 
Loop time of 1.5e-06 on 1 procs for 0 steps with 2 atoms


next i
jump SELF loop

  reset_timestep $i
  reset_timestep 502
  set atom 2 x ${x2}
  set atom 2 x 5.42
  1 settings made for x
  run 0 pre yes post no # force neighborlist rebuild
WARNING: No fixes defined, atoms won't move (src/verlet.cpp:52)
Per MPI rank memory allocation (min/avg/max) = 7.127 | 7.127 | 7.127 Mbytes
Step Temp TotEng Press PotEng c_pe 
     502            0     1327.511    50.139975     1327.511     1327.511 
Loop time of 1.6e-06 on 1 procs for 0 steps with 2 atoms


next i
jump SELF loop

  reset_timestep $i
  reset_timestep 503
  set atom 2 x ${x2}
  set atom 2 x 5.43
  1 settings made for x
  run 0 pre yes post no # force neighborlist rebuild
WARNING: No fixes defined, atoms won't move (src/verlet.cpp:52)
Per MPI rank memory allocation (min/avg/max) = 7.127 | 7.127 | 7.127 Mbytes
Step Temp TotEng Press PotEng c_pe 
     503            0    1642.0091     61.89506    1642.0091    1642.0091 
Loop time of 2.2e-06 on 1 procs for 0 steps with 2 atoms


next i
jump SELF loop

  reset_timestep $i
  reset_timestep 504
  set atom 2 x ${x2}
  set atom 2 x 5.44
  1 settings made for x
  run 0 pre yes post no # force neighborlist rebuild
WARNING: No fixes defined, atoms won't move (src/verlet.cpp:52)
Per MPI rank memory allocation (min/avg/max) = 7.127 | 7.127 | 7.127 Mbytes
Step Temp TotEng Press PotEng c_pe 
     504            0    2037.8336    76.676221    2037.8336    2037.8336 
Loop time of 1.6e-06 on 1 procs for 0 steps with 2 atoms


next i
jump SELF loop

  reset_timestep $i
  reset_timestep 505
  set atom 2 x ${x2}
  set atom 2 x 5.45
  1 settings made for x
  run 0 pre yes post no # force neighborlist rebuild
WARNING: No fixes defined, atoms won't move (src/verlet.cpp:52)
Per MPI rank memory allocation (min/avg/max) = 7.127 | 7.127 | 7.127 Mbytes
Step Temp TotEng Press PotEng c_pe 
     505            0     2537.971    95.336938     2537.971     2537.971 
Loop time of 1.6e-06 on 1 procs for 0 steps with 2 atoms


next i
jump SELF loop

  reset_timestep $i
  reset_timestep 506
  set atom 2 x ${x2}
  set atom 2 x 5.46
  1 settings made for x
  run 0 pre yes post no # force neighborlist rebuild
WARNING: No fixes defined, atoms won't move (src/verlet.cpp:52)
Per MPI rank memory allocation (min/avg/max) = 7.127 | 7.127 | 7.127 Mbytes
Step Temp TotEng Press PotEng c_pe 
     506            0    3172.4942    118.99352    3172.4942    3172.4942 
Loop time of 1.5e-06 on 1 procs for 0 steps with 2 atoms


next i
jump SELF loop

  reset_timestep $i
  reset_timestep 507
  set atom 2 x ${x2}
  set atom 2 x 5.47
  1 settings made for x
  run 0 pre yes post no # force neighborlist rebuild
WARNING: No fixes defined, atoms won't move (src/verlet.cpp:52)
Per MPI rank memory allocation (min/avg/max) = 7.127 | 7.127 | 7.127 Mbytes
Step Temp TotEng Press PotEng c_pe 
     507            0    3980.9381    149.11317    3980.9381    3980.9381 
Loop time of 1.5e-06 on 1 procs for 0 steps with 2 atoms


next i
jump SELF loop

  reset_timestep $i
  reset_timestep 508
  set atom 2 x ${x2}
  set atom 2 x 5.48
  1 settings made for x
  run 0 pre yes post no # force neighborlist rebuild
WARNING: No fixes defined, atoms won't move (src/verlet.cpp:52)
Per MPI rank memory allocation (min/avg/max) = 7.127 | 7.127 | 7.127 Mbytes
Step Temp TotEng Press PotEng c_pe 
     508            0    5015.5388    187.63403    5015.5388    5015.5388 
Loop time of 1.23e-05 on 1 procs for 0 steps with 2 atoms


next i
jump SELF loop

  reset_timestep $i
  reset_timestep 509
  set atom 2 x ${x2}
  set atom 2 x 5.49
  1 settings made for x
  run 0 pre yes post no # force neighborlist rebuild
WARNING: No fixes defined, atoms won't move (src/verlet.cpp:52)
Per MPI rank memory allocation (min/avg/max) = 7.127 | 7.127 | 7.127 Mbytes
Step Temp TotEng Press PotEng c_pe 
     509            0    6345.6758    237.12985    6345.6758    6345.6758 
Loop time of 1.6e-06 on 1 procs for 0 steps with 2 atoms


next i
jump SELF loop

  reset_timestep $i
  reset_timestep 510
  set atom 2 x ${x2}
  set atom 2 x 5.5
  1 settings made for x
  run 0 pre yes post no # force neighborlist rebuild
WARNING: No fixes defined, atoms won't move (src/verlet.cpp:52)
Per MPI rank memory allocation (min/avg/max) = 7.127 | 7.127 | 7.127 Mbytes
Step Temp TotEng Press PotEng c_pe 
     510            0         8064    301.03704         8064         8064 
Loop time of 1.6e-06 on 1 procs for 0 steps with 2 atoms


next i
jump SELF loop

  reset_timestep $i
  reset_timestep 511
  set atom 2 x ${x2}
  set atom 2 x 5.51
  1 settings made for x
  run 0 pre yes post no # force neighborlist rebuild
WARNING: No fixes defined, atoms won't move (src/verlet.cpp:52)
Per MPI rank memory allocation (min/avg/max) = 7.127 | 7.127 | 7.127 Mbytes
Step Temp TotEng Press PotEng c_pe 
     511            0    10294.941    383.96994    10294.941    10294.941 
Loop time of 1.6e-06 on 1 procs for 0 steps with 2 atoms


next i
jump SELF loop

  reset_timestep $i
  reset_timestep 512
  set atom 2 x ${x2}
  set atom 2 x 5.52
  1 settings made for x
  run 0 pre yes post no # force neighborlist rebuild
WARNING: No fixes defined, atoms won't move (src/verlet.cpp:52)
Per MPI rank memory allocation (min/avg/max) = 7.127 | 7.127 | 7.127 Mbytes
Step Temp TotEng Press PotEng c_pe 
     512            0    13206.591    492.16122    13206.591    13206.591 
Loop time of 1.7e-06 on 1 procs for 0 steps with 2 atoms


next i
jump SELF loop

  reset_timestep $i
  reset_timestep 513
  set atom 2 x ${x2}
  set atom 2 x 5.53
  1 settings made for x
  run 0 pre yes post no # force neighborlist rebuild
WARNING: No fixes defined, atoms won't move (src/verlet.cpp:52)
Per MPI rank memory allocation (min/avg/max) = 7.127 | 7.127 | 7.127 Mbytes
Step Temp TotEng Press PotEng c_pe 
     513            0    17027.423    634.08128    17027.423    17027.423 
Loop time of 1.8e-06 on 1 procs for 0 steps with 2 atoms


next i
jump SELF loop

  reset_timestep $i
  reset_timestep 514
  set atom 2 x ${x2}
  set atom 2 x 5.54
  1 settings made for x
  run 0 pre yes post no # force neighborlist rebuild
WARNING: No fixes defined, atoms won't move (src/verlet.cpp:52)
Per MPI rank memory allocation (min/avg/max) = 7.127 | 7.127 | 7.127 Mbytes
Step Temp TotEng Press PotEng c_pe 
     514            0    22069.971    821.31555    22069.971    22069.971 
Loop time of 1.6e-06 on 1 procs for 0 steps with 2 atoms


next i
jump SELF loop

  reset_timestep $i
  reset_timestep 515
  set atom 2 x ${x2}
  set atom 2 x 5.55
  1 settings made for x
  run 0 pre yes post no # force neighborlist rebuild
WARNING: No fixes defined, atoms won't move (src/verlet.cpp:52)
Per MPI rank memory allocation (min/avg/max) = 7.127 | 7.127 | 7.127 Mbytes
Step Temp TotEng Press PotEng c_pe 
     515            0     28764.61    1069.8162     28764.61     28764.61 
Loop time of 1.5e-06 on 1 procs for 0 steps with 2 atoms


next i
jump SELF loop

  reset_timestep $i
  reset_timestep 516
  set atom 2 x ${x2}
  set atom 2 x 5.56
  1 settings made for x
  run 0 pre yes post no # force neighborlist rebuild
WARNING: No fixes defined, atoms won't move (src/verlet.cpp:52)
Per MPI rank memory allocation (min/avg/max) = 7.127 | 7.127 | 7.127 Mbytes
Step Temp TotEng Press PotEng c_pe 
     516            0    37708.131    1401.7016    37708.131    37708.131 
Loop time of 1.6e-06 on 1 procs for 0 steps with 2 atoms


next i
jump SELF loop

  reset_timestep $i
  reset_timestep 517
  set atom 2 x ${x2}
  set atom 2 x 5.57
  1 settings made for x
  run 0 pre yes post no # force neighborlist rebuild
WARNING: No fixes defined, atoms won't move (src/verlet.cpp:52)
Per MPI rank memory allocation (min/avg/max) = 7.127 | 7.127 | 7.127 Mbytes
Step Temp TotEng Press PotEng c_pe 
     517            0    49734.125    1847.8637    49734.125    49734.125 
Loop time of 1.6e-06 on 1 procs for 0 steps with 2 atoms


next i
jump SELF loop

  reset_timestep $i
  reset_timestep 518
  set atom 2 x ${x2}
  set atom 2 x 5.58
  1 settings made for x
  run 0 pre yes post no # force neighborlist rebuild
WARNING: No fixes defined, atoms won't move (src/verlet.cpp:52)
Per MPI rank memory allocation (min/avg/max) = 7.127 | 7.127 | 7.127 Mbytes
Step Temp TotEng Press PotEng c_pe 
     518            0     66015.83    2451.7782     66015.83     66015.83 
Loop time of 1.5e-06 on 1 procs for 0 steps with 2 atoms


next i
jump SELF loop

  reset_timestep $i
  reset_timestep 519
  set atom 2 x ${x2}
  set atom 2 x 5.59
  1 settings made for x
  run 0 pre yes post no # force neighborlist rebuild
WARNING: No fixes defined, atoms won't move (src/verlet.cpp:52)
Per MPI rank memory allocation (min/avg/max) = 7.127 | 7.127 | 7.127 Mbytes
Step Temp TotEng Press PotEng c_pe 
     519            0    88217.725    3275.1203    88217.725    88217.725 
Loop time of 1.5e-06 on 1 procs for 0 steps with 2 atoms


next i
jump SELF loop

  reset_timestep $i
  reset_timestep 520
  set atom 2 x ${x2}
  set atom 2 x 5.6
  1 settings made for x
  run 0 pre yes post no # force neighborlist rebuild
WARNING: No fixes defined, atoms won't move (src/verlet.cpp:52)
Per MPI rank memory allocation (min/avg/max) = 7.127 | 7.127 | 7.127 Mbytes
Step Temp TotEng Press PotEng c_pe 
     520            0    118721.01    4406.1166    118721.01    118721.01 
Loop time of 1.7e-06 on 1 procs for 0 steps with 2 atoms


next i
jump SELF loop

Total wall time: 0:00:01
