LAMMPS (3 Mar 2020)
OMP_NUM_THREADS environment is not set. Defaulting to 1 thread. (src/comm.cpp:94)
  using 1 OpenMP thread(s) per MPI task
###################################################################
# System :
#  2 atoms in a box
# Simulation :
#  Shift atom2 from min_dist to boxsize-min_dist
#  * calculate the potential energy
#   * store the data in dump.lammpstrj.gz

variable boxsize equal 30
variable step_size equal 0.1
variable min_dist equal 0.4

units lj
timestep 0.005
atom_style full
atom_modify map array

region box block 0 ${boxsize} 0 ${boxsize} 0 ${boxsize}
region box block 0 30 0 ${boxsize} 0 ${boxsize}
region box block 0 30 0 30 0 ${boxsize}
region box block 0 30 0 30 0 30
create_box 1 box
Created orthogonal box = (0 0 0) to (30 30 30)
  1 by 1 by 1 MPI processor grid

create_atoms 1 single 0.0 0.0 0.0
Created 1 atoms
  create_atoms CPU = 0.0001506 secs
create_atoms 1 single ${min_dist} 0.0 0.0
create_atoms 1 single 0.4 0.0 0.0
Created 1 atoms
  create_atoms CPU = 0.0087006 secs

mass 1 1.0

velocity all set 0 0 0

pair_style lj/cut 2.5
pair_coeff 1 1 1.0 1.0 2.5

neighbor 0.3 bin
neigh_modify delay 0 every 1 check no


# calculate number of loop steps and set up variable for the x position of atom2
variable loop_steps equal round((${boxsize}-2*${min_dist})/${step_size}) # spacer on both sides
variable loop_steps equal round((30-2*${min_dist})/${step_size}) 
variable loop_steps equal round((30-2*0.4)/${step_size}) 
variable loop_steps equal round((30-2*0.4)/0.1) 
variable i loop ${loop_steps}
variable i loop 292
variable x2 equal ${min_dist}+step*${step_size}
variable x2 equal 0.4+step*${step_size}
variable x2 equal 0.4+step*0.1


# thermo output
variable e2body    equal ebond+evdwl
variable ecoul_tot equal ecoul+elong
variable str_dbg string 'ebond eangle edihed eimp evdwl ecoul elong etail v_e2body v_ecoul_tot'
thermo_style custom step temp pe etotal press vol ${str_dbg}
thermo_style custom step temp pe etotal press vol ebond eangle edihed eimp evdwl ecoul elong etail v_e2body v_ecoul_tot

# compute the per atom properties
compute peatom all pe/atom
dump 1 all custom/gz 1 dump.lammpstrj.gz id type x y z fx fy fz c_peatom

# create step 0
reset_timestep 0
set atom 2 x ${x2}
set atom 2 x 0.4
  1 settings made for x
run 0 pre yes post no # force neighborlist rebuild
WARNING: No fixes defined, atoms won't move (src/verlet.cpp:52)
Neighbor list info ...
  update every 1 steps, delay 0 steps, check no
  max neighbors/atom: 2000, page size: 100000
  master list distance cutoff = 2.8
  ghost atom cutoff = 2.8
  binsize = 1.4, bins = 22 22 22
  1 neighbor lists, perpetual/occasional/extra = 1 0 0
  (1) pair lj/cut, perpetual
      attributes: half, newton on
      pair build: half/bin/newton
      stencil: half/bin/3d/newton
      bin: standard
Per MPI rank memory allocation (min/avg/max) = 7.073 | 7.073 | 7.073 Mbytes
Step Temp PotEng TotEng Press Volume E_bond E_angle E_dihed E_impro E_vdwl E_coul E_long E_tail v_e2body v_ecoul_tot 
       0            0    118721.01    118721.01    35.248933        27000            0            0            0            0    118721.01            0            0            0    118721.01            0 
Loop time of 4.7e-06 on 1 procs for 0 steps with 2 atoms


# loop over the different positions
label loop

  reset_timestep $i
  reset_timestep 1
  set atom 2 x ${x2}
  set atom 2 x 0.5
  1 settings made for x
  run 0 pre yes post no # force neighborlist rebuild
WARNING: No fixes defined, atoms won't move (src/verlet.cpp:52)
Per MPI rank memory allocation (min/avg/max) = 7.073 | 7.073 | 7.073 Mbytes
Step Temp PotEng TotEng Press Volume E_bond E_angle E_dihed E_impro E_vdwl E_coul E_long E_tail v_e2body v_ecoul_tot 
       1            0         8064         8064    2.4082963        27000            0            0            0            0         8064            0            0            0         8064            0 
Loop time of 5.2e-06 on 1 procs for 0 steps with 2 atoms


next i
jump SELF loop

  reset_timestep $i
  reset_timestep 2
  set atom 2 x ${x2}
  set atom 2 x 0.6
  1 settings made for x
  run 0 pre yes post no # force neighborlist rebuild
WARNING: No fixes defined, atoms won't move (src/verlet.cpp:52)
Per MPI rank memory allocation (min/avg/max) = 7.073 | 7.073 | 7.073 Mbytes
Step Temp PotEng TotEng Press Volume E_bond E_angle E_dihed E_impro E_vdwl E_coul E_long E_tail v_e2body v_ecoul_tot 
       2            0    875.92037    875.92037   0.26588262        27000            0            0            0            0    875.92037            0            0            0    875.92037            0 
Loop time of 2.4e-06 on 1 procs for 0 steps with 2 atoms


next i
jump SELF loop

  reset_timestep $i
  reset_timestep 3
  set atom 2 x ${x2}
  set atom 2 x 0.7
  1 settings made for x
  run 0 pre yes post no # force neighborlist rebuild
WARNING: No fixes defined, atoms won't move (src/verlet.cpp:52)
Per MPI rank memory allocation (min/avg/max) = 7.073 | 7.073 | 7.073 Mbytes
Step Temp PotEng TotEng Press Volume E_bond E_angle E_dihed E_impro E_vdwl E_coul E_long E_tail v_e2body v_ecoul_tot 
       3            0    127.49551    127.49551  0.040294925        27000            0            0            0            0    127.49551            0            0            0    127.49551            0 
Loop time of 2.9e-06 on 1 procs for 0 steps with 2 atoms


next i
jump SELF loop

  reset_timestep $i
  reset_timestep 4
  set atom 2 x ${x2}
  set atom 2 x 0.8
  1 settings made for x
  run 0 pre yes post no # force neighborlist rebuild
WARNING: No fixes defined, atoms won't move (src/verlet.cpp:52)
Per MPI rank memory allocation (min/avg/max) = 7.073 | 7.073 | 7.073 Mbytes
Step Temp PotEng TotEng Press Volume E_bond E_angle E_dihed E_impro E_vdwl E_coul E_long E_tail v_e2body v_ecoul_tot 
       4            0    21.474436    21.474436 0.0074930765        27000            0            0            0            0    21.474436            0            0            0    21.474436            0 
Loop time of 3e-06 on 1 procs for 0 steps with 2 atoms


next i
jump SELF loop

  reset_timestep $i
  reset_timestep 5
  set atom 2 x ${x2}
  set atom 2 x 0.9
  1 settings made for x
  run 0 pre yes post no # force neighborlist rebuild
WARNING: No fixes defined, atoms won't move (src/verlet.cpp:52)
Per MPI rank memory allocation (min/avg/max) = 7.073 | 7.073 | 7.073 Mbytes
Step Temp PotEng TotEng Press Volume E_bond E_angle E_dihed E_impro E_vdwl E_coul E_long E_tail v_e2body v_ecoul_tot 
       5            0    3.3180595    3.3180595 0.0015406625        27000            0            0            0            0    3.3180595            0            0            0    3.3180595            0 
Loop time of 2.5e-06 on 1 procs for 0 steps with 2 atoms


next i
jump SELF loop

  reset_timestep $i
  reset_timestep 6
  set atom 2 x ${x2}
  set atom 2 x 1
  1 settings made for x
  run 0 pre yes post no # force neighborlist rebuild
WARNING: No fixes defined, atoms won't move (src/verlet.cpp:52)
Per MPI rank memory allocation (min/avg/max) = 7.073 | 7.073 | 7.073 Mbytes
Step Temp PotEng TotEng Press Volume E_bond E_angle E_dihed E_impro E_vdwl E_coul E_long E_tail v_e2body v_ecoul_tot 
       6            0            0            0 0.0002962963        27000            0            0            0            0            0            0            0            0            0            0 
Loop time of 2e-06 on 1 procs for 0 steps with 2 atoms


next i
jump SELF loop

  reset_timestep $i
  reset_timestep 7
  set atom 2 x ${x2}
  set atom 2 x 1.1
  1 settings made for x
  run 0 pre yes post no # force neighborlist rebuild
WARNING: No fixes defined, atoms won't move (src/verlet.cpp:52)
Per MPI rank memory allocation (min/avg/max) = 7.073 | 7.073 | 7.073 Mbytes
Step Temp PotEng TotEng Press Volume E_bond E_angle E_dihed E_impro E_vdwl E_coul E_long E_tail v_e2body v_ecoul_tot 
       7            0  -0.49168622  -0.49168622 2.1566728e-05        27000            0            0            0            0  -0.49168622            0            0            0  -0.49168622            0 
Loop time of 1.8e-06 on 1 procs for 0 steps with 2 atoms


next i
jump SELF loop

  reset_timestep $i
  reset_timestep 8
  set atom 2 x ${x2}
  set atom 2 x 1.2
  1 settings made for x
  run 0 pre yes post no # force neighborlist rebuild
WARNING: No fixes defined, atoms won't move (src/verlet.cpp:52)
Per MPI rank memory allocation (min/avg/max) = 7.073 | 7.073 | 7.073 Mbytes
Step Temp PotEng TotEng Press Volume E_bond E_angle E_dihed E_impro E_vdwl E_coul E_long E_tail v_e2body v_ecoul_tot 
       8            0  -0.44548264  -0.44548264 -3.2765827e-05        27000            0            0            0            0  -0.44548264            0            0            0  -0.44548264            0 
Loop time of 1.9e-06 on 1 procs for 0 steps with 2 atoms


next i
jump SELF loop

  reset_timestep $i
  reset_timestep 9
  set atom 2 x ${x2}
  set atom 2 x 1.3
  1 settings made for x
  run 0 pre yes post no # force neighborlist rebuild
WARNING: No fixes defined, atoms won't move (src/verlet.cpp:52)
Per MPI rank memory allocation (min/avg/max) = 7.073 | 7.073 | 7.073 Mbytes
Step Temp PotEng TotEng Press Volume E_bond E_angle E_dihed E_impro E_vdwl E_coul E_long E_tail v_e2body v_ecoul_tot 
       9            0  -0.32850846  -0.32850846 -3.5950295e-05        27000            0            0            0            0  -0.32850846            0            0            0  -0.32850846            0 
Loop time of 1.9e-06 on 1 procs for 0 steps with 2 atoms


next i
jump SELF loop

  reset_timestep $i
  reset_timestep 10
  set atom 2 x ${x2}
  set atom 2 x 1.4
  1 settings made for x
  run 0 pre yes post no # force neighborlist rebuild
WARNING: No fixes defined, atoms won't move (src/verlet.cpp:52)
Per MPI rank memory allocation (min/avg/max) = 7.073 | 7.073 | 7.073 Mbytes
Step Temp PotEng TotEng Press Volume E_bond E_angle E_dihed E_impro E_vdwl E_coul E_long E_tail v_e2body v_ecoul_tot 
      10            0  -0.23034346  -0.23034346 -2.8898712e-05        27000            0            0            0            0  -0.23034346            0            0            0  -0.23034346            0 
Loop time of 1.9e-06 on 1 procs for 0 steps with 2 atoms


next i
jump SELF loop

  reset_timestep $i
  reset_timestep 11
  set atom 2 x ${x2}
  set atom 2 x 1.5
  1 settings made for x
  run 0 pre yes post no # force neighborlist rebuild
WARNING: No fixes defined, atoms won't move (src/verlet.cpp:52)
Per MPI rank memory allocation (min/avg/max) = 7.073 | 7.073 | 7.073 Mbytes
Step Temp PotEng TotEng Press Volume E_bond E_angle E_dihed E_impro E_vdwl E_coul E_long E_tail v_e2body v_ecoul_tot 
      11            0   -0.1601683   -0.1601683 -2.1444978e-05        27000            0            0            0            0   -0.1601683            0            0            0   -0.1601683            0 
Loop time of 1.9e-06 on 1 procs for 0 steps with 2 atoms


next i
jump SELF loop

  reset_timestep $i
  reset_timestep 12
  set atom 2 x ${x2}
  set atom 2 x 1.6
  1 settings made for x
  run 0 pre yes post no # force neighborlist rebuild
WARNING: No fixes defined, atoms won't move (src/verlet.cpp:52)
Per MPI rank memory allocation (min/avg/max) = 7.073 | 7.073 | 7.073 Mbytes
Step Temp PotEng TotEng Press Volume E_bond E_angle E_dihed E_impro E_vdwl E_coul E_long E_tail v_e2body v_ecoul_tot 
      12            0  -0.11210386  -0.11210386 -1.5555324e-05        27000            0            0            0            0  -0.11210386            0            0            0  -0.11210386            0 
Loop time of 2e-06 on 1 procs for 0 steps with 2 atoms


next i
jump SELF loop

  reset_timestep $i
  reset_timestep 13
  set atom 2 x ${x2}
  set atom 2 x 1.7
  1 settings made for x
  run 0 pre yes post no # force neighborlist rebuild
WARNING: No fixes defined, atoms won't move (src/verlet.cpp:52)
Per MPI rank memory allocation (min/avg/max) = 7.073 | 7.073 | 7.073 Mbytes
Step Temp PotEng TotEng Press Volume E_bond E_angle E_dihed E_impro E_vdwl E_coul E_long E_tail v_e2body v_ecoul_tot 
      13            0  -0.07942563  -0.07942563 -1.1258203e-05        27000            0            0            0            0  -0.07942563            0            0            0  -0.07942563            0 
Loop time of 1.7e-06 on 1 procs for 0 steps with 2 atoms


next i
jump SELF loop

  reset_timestep $i
  reset_timestep 14
  set atom 2 x ${x2}
  set atom 2 x 1.8
  1 settings made for x
  run 0 pre yes post no # force neighborlist rebuild
WARNING: No fixes defined, atoms won't move (src/verlet.cpp:52)
Per MPI rank memory allocation (min/avg/max) = 7.073 | 7.073 | 7.073 Mbytes
Step Temp PotEng TotEng Press Volume E_bond E_angle E_dihed E_impro E_vdwl E_coul E_long E_tail v_e2body v_ecoul_tot 
      14            0 -0.057073528 -0.057073528 -8.19921e-06        27000            0            0            0            0 -0.057073528            0            0            0 -0.057073528            0 
Loop time of 1.8e-06 on 1 procs for 0 steps with 2 atoms


next i
jump SELF loop

  reset_timestep $i
  reset_timestep 15
  set atom 2 x ${x2}
  set atom 2 x 1.9
  1 settings made for x
  run 0 pre yes post no # force neighborlist rebuild
WARNING: No fixes defined, atoms won't move (src/verlet.cpp:52)
Per MPI rank memory allocation (min/avg/max) = 7.073 | 7.073 | 7.073 Mbytes
Step Temp PotEng TotEng Press Volume E_bond E_angle E_dihed E_impro E_vdwl E_coul E_long E_tail v_e2body v_ecoul_tot 
      15            0  -0.04160807  -0.04160807 -6.0302886e-06        27000            0            0            0            0  -0.04160807            0            0            0  -0.04160807            0 
Loop time of 1.5e-06 on 1 procs for 0 steps with 2 atoms


next i
jump SELF loop

  reset_timestep $i
  reset_timestep 16
  set atom 2 x ${x2}
  set atom 2 x 2
  1 settings made for x
  run 0 pre yes post no # force neighborlist rebuild
WARNING: No fixes defined, atoms won't move (src/verlet.cpp:52)
Per MPI rank memory allocation (min/avg/max) = 7.073 | 7.073 | 7.073 Mbytes
Step Temp PotEng TotEng Press Volume E_bond E_angle E_dihed E_impro E_vdwl E_coul E_long E_tail v_e2body v_ecoul_tot 
      16            0 -0.030761719 -0.030761719 -4.4849537e-06        27000            0            0            0            0 -0.030761719            0            0            0 -0.030761719            0 
Loop time of 1.8e-06 on 1 procs for 0 steps with 2 atoms


next i
jump SELF loop

  reset_timestep $i
  reset_timestep 17
  set atom 2 x ${x2}
  set atom 2 x 2.1
  1 settings made for x
  run 0 pre yes post no # force neighborlist rebuild
WARNING: No fixes defined, atoms won't move (src/verlet.cpp:52)
Per MPI rank memory allocation (min/avg/max) = 7.073 | 7.073 | 7.073 Mbytes
Step Temp PotEng TotEng Press Volume E_bond E_angle E_dihed E_impro E_vdwl E_coul E_long E_tail v_e2body v_ecoul_tot 
      17            0 -0.023047338 -0.023047338 -3.3741399e-06        27000            0            0            0            0 -0.023047338            0            0            0 -0.023047338            0 
Loop time of 1.7e-06 on 1 procs for 0 steps with 2 atoms


next i
jump SELF loop

  reset_timestep $i
  reset_timestep 18
  set atom 2 x ${x2}
  set atom 2 x 2.2
  1 settings made for x
  run 0 pre yes post no # force neighborlist rebuild
WARNING: No fixes defined, atoms won't move (src/verlet.cpp:52)
Per MPI rank memory allocation (min/avg/max) = 7.073 | 7.073 | 7.073 Mbytes
Step Temp PotEng TotEng Press Volume E_bond E_angle E_dihed E_impro E_vdwl E_coul E_long E_tail v_e2body v_ecoul_tot 
      18            0 -0.017484229 -0.017484229 -2.567207e-06        27000            0            0            0            0 -0.017484229            0            0            0 -0.017484229            0 
Loop time of 1.9e-06 on 1 procs for 0 steps with 2 atoms


next i
jump SELF loop

  reset_timestep $i
  reset_timestep 19
  set atom 2 x ${x2}
  set atom 2 x 2.3
  1 settings made for x
  run 0 pre yes post no # force neighborlist rebuild
WARNING: No fixes defined, atoms won't move (src/verlet.cpp:52)
Per MPI rank memory allocation (min/avg/max) = 7.073 | 7.073 | 7.073 Mbytes
Step Temp PotEng TotEng Press Volume E_bond E_angle E_dihed E_impro E_vdwl E_coul E_long E_tail v_e2body v_ecoul_tot 
      19            0 -0.013418974 -0.013418974 -1.9744757e-06        27000            0            0            0            0 -0.013418974            0            0            0 -0.013418974            0 
Loop time of 1.9e-06 on 1 procs for 0 steps with 2 atoms


next i
jump SELF loop

  reset_timestep $i
  reset_timestep 20
  set atom 2 x ${x2}
  set atom 2 x 2.4
  1 settings made for x
  run 0 pre yes post no # force neighborlist rebuild
WARNING: No fixes defined, atoms won't move (src/verlet.cpp:52)
Per MPI rank memory allocation (min/avg/max) = 7.073 | 7.073 | 7.073 Mbytes
Step Temp PotEng TotEng Press Volume E_bond E_angle E_dihed E_impro E_vdwl E_coul E_long E_tail v_e2body v_ecoul_tot 
      20            0 -0.010410798 -0.010410798 -1.5342272e-06        27000            0            0            0            0 -0.010410798            0            0            0 -0.010410798            0 
Loop time of 1.9e-06 on 1 procs for 0 steps with 2 atoms


next i
jump SELF loop

  reset_timestep $i
  reset_timestep 21
  set atom 2 x ${x2}
  set atom 2 x 2.5
  1 settings made for x
  run 0 pre yes post no # force neighborlist rebuild
WARNING: No fixes defined, atoms won't move (src/verlet.cpp:52)
Per MPI rank memory allocation (min/avg/max) = 7.073 | 7.073 | 7.073 Mbytes
Step Temp PotEng TotEng Press Volume E_bond E_angle E_dihed E_impro E_vdwl E_coul E_long E_tail v_e2body v_ecoul_tot 
      21            0            0            0            0        27000            0            0            0            0            0            0            0            0            0            0 
Loop time of 1.9e-06 on 1 procs for 0 steps with 2 atoms


next i
jump SELF loop

  reset_timestep $i
  reset_timestep 22
  set atom 2 x ${x2}
  set atom 2 x 2.6
  1 settings made for x
  run 0 pre yes post no # force neighborlist rebuild
WARNING: No fixes defined, atoms won't move (src/verlet.cpp:52)
Per MPI rank memory allocation (min/avg/max) = 7.073 | 7.073 | 7.073 Mbytes
Step Temp PotEng TotEng Press Volume E_bond E_angle E_dihed E_impro E_vdwl E_coul E_long E_tail v_e2body v_ecoul_tot 
      22            0            0            0            0        27000            0            0            0            0            0            0            0            0            0            0 
Loop time of 1.9e-06 on 1 procs for 0 steps with 2 atoms


next i
jump SELF loop

  reset_timestep $i
  reset_timestep 23
  set atom 2 x ${x2}
  set atom 2 x 2.7
  1 settings made for x
  run 0 pre yes post no # force neighborlist rebuild
WARNING: No fixes defined, atoms won't move (src/verlet.cpp:52)
Per MPI rank memory allocation (min/avg/max) = 7.073 | 7.073 | 7.073 Mbytes
Step Temp PotEng TotEng Press Volume E_bond E_angle E_dihed E_impro E_vdwl E_coul E_long E_tail v_e2body v_ecoul_tot 
      23            0            0            0            0        27000            0            0            0            0            0            0            0            0            0            0 
Loop time of 1.8e-06 on 1 procs for 0 steps with 2 atoms


next i
jump SELF loop

  reset_timestep $i
  reset_timestep 24
  set atom 2 x ${x2}
  set atom 2 x 2.8
  1 settings made for x
  run 0 pre yes post no # force neighborlist rebuild
WARNING: No fixes defined, atoms won't move (src/verlet.cpp:52)
Per MPI rank memory allocation (min/avg/max) = 7.073 | 7.073 | 7.073 Mbytes
Step Temp PotEng TotEng Press Volume E_bond E_angle E_dihed E_impro E_vdwl E_coul E_long E_tail v_e2body v_ecoul_tot 
      24            0            0            0            0        27000            0            0            0            0            0            0            0            0            0            0 
Loop time of 1.8e-06 on 1 procs for 0 steps with 2 atoms


next i
jump SELF loop

  reset_timestep $i
  reset_timestep 25
  set atom 2 x ${x2}
  set atom 2 x 2.9
  1 settings made for x
  run 0 pre yes post no # force neighborlist rebuild
WARNING: No fixes defined, atoms won't move (src/verlet.cpp:52)
Per MPI rank memory allocation (min/avg/max) = 7.073 | 7.073 | 7.073 Mbytes
Step Temp PotEng TotEng Press Volume E_bond E_angle E_dihed E_impro E_vdwl E_coul E_long E_tail v_e2body v_ecoul_tot 
      25            0            0            0            0        27000            0            0            0            0            0            0            0            0            0            0 
Loop time of 1.5e-06 on 1 procs for 0 steps with 2 atoms


next i
jump SELF loop

  reset_timestep $i
  reset_timestep 26
  set atom 2 x ${x2}
  set atom 2 x 3
  1 settings made for x
  run 0 pre yes post no # force neighborlist rebuild
WARNING: No fixes defined, atoms won't move (src/verlet.cpp:52)
Per MPI rank memory allocation (min/avg/max) = 7.073 | 7.073 | 7.073 Mbytes
Step Temp PotEng TotEng Press Volume E_bond E_angle E_dihed E_impro E_vdwl E_coul E_long E_tail v_e2body v_ecoul_tot 
      26            0            0            0            0        27000            0            0            0            0            0            0            0            0            0            0 
Loop time of 1.7e-06 on 1 procs for 0 steps with 2 atoms


next i
jump SELF loop

  reset_timestep $i
  reset_timestep 27
  set atom 2 x ${x2}
  set atom 2 x 3.1
  1 settings made for x
  run 0 pre yes post no # force neighborlist rebuild
WARNING: No fixes defined, atoms won't move (src/verlet.cpp:52)
Per MPI rank memory allocation (min/avg/max) = 7.073 | 7.073 | 7.073 Mbytes
Step Temp PotEng TotEng Press Volume E_bond E_angle E_dihed E_impro E_vdwl E_coul E_long E_tail v_e2body v_ecoul_tot 
      27            0            0            0            0        27000            0            0            0            0            0            0            0            0            0            0 
Loop time of 2e-06 on 1 procs for 0 steps with 2 atoms


next i
jump SELF loop

  reset_timestep $i
  reset_timestep 28
  set atom 2 x ${x2}
  set atom 2 x 3.2
  1 settings made for x
  run 0 pre yes post no # force neighborlist rebuild
WARNING: No fixes defined, atoms won't move (src/verlet.cpp:52)
Per MPI rank memory allocation (min/avg/max) = 7.073 | 7.073 | 7.073 Mbytes
Step Temp PotEng TotEng Press Volume E_bond E_angle E_dihed E_impro E_vdwl E_coul E_long E_tail v_e2body v_ecoul_tot 
      28            0            0            0            0        27000            0            0            0            0            0            0            0            0            0            0 
Loop time of 1.8e-06 on 1 procs for 0 steps with 2 atoms


next i
jump SELF loop

  reset_timestep $i
  reset_timestep 29
  set atom 2 x ${x2}
  set atom 2 x 3.3
  1 settings made for x
  run 0 pre yes post no # force neighborlist rebuild
WARNING: No fixes defined, atoms won't move (src/verlet.cpp:52)
Per MPI rank memory allocation (min/avg/max) = 7.073 | 7.073 | 7.073 Mbytes
Step Temp PotEng TotEng Press Volume E_bond E_angle E_dihed E_impro E_vdwl E_coul E_long E_tail v_e2body v_ecoul_tot 
      29            0            0            0            0        27000            0            0            0            0            0            0            0            0            0            0 
Loop time of 1.5e-06 on 1 procs for 0 steps with 2 atoms


next i
jump SELF loop

  reset_timestep $i
  reset_timestep 30
  set atom 2 x ${x2}
  set atom 2 x 3.4
  1 settings made for x
  run 0 pre yes post no # force neighborlist rebuild
WARNING: No fixes defined, atoms won't move (src/verlet.cpp:52)
Per MPI rank memory allocation (min/avg/max) = 7.073 | 7.073 | 7.073 Mbytes
Step Temp PotEng TotEng Press Volume E_bond E_angle E_dihed E_impro E_vdwl E_coul E_long E_tail v_e2body v_ecoul_tot 
      30            0            0            0            0        27000            0            0            0            0            0            0            0            0            0            0 
Loop time of 2e-06 on 1 procs for 0 steps with 2 atoms


next i
jump SELF loop

  reset_timestep $i
  reset_timestep 31
  set atom 2 x ${x2}
  set atom 2 x 3.5
  1 settings made for x
  run 0 pre yes post no # force neighborlist rebuild
WARNING: No fixes defined, atoms won't move (src/verlet.cpp:52)
Per MPI rank memory allocation (min/avg/max) = 7.073 | 7.073 | 7.073 Mbytes
Step Temp PotEng TotEng Press Volume E_bond E_angle E_dihed E_impro E_vdwl E_coul E_long E_tail v_e2body v_ecoul_tot 
      31            0            0            0            0        27000            0            0            0            0            0            0            0            0            0            0 
Loop time of 1.5e-06 on 1 procs for 0 steps with 2 atoms


next i
jump SELF loop

  reset_timestep $i
  reset_timestep 32
  set atom 2 x ${x2}
  set atom 2 x 3.6
  1 settings made for x
  run 0 pre yes post no # force neighborlist rebuild
WARNING: No fixes defined, atoms won't move (src/verlet.cpp:52)
Per MPI rank memory allocation (min/avg/max) = 7.073 | 7.073 | 7.073 Mbytes
Step Temp PotEng TotEng Press Volume E_bond E_angle E_dihed E_impro E_vdwl E_coul E_long E_tail v_e2body v_ecoul_tot 
      32            0            0            0            0        27000            0            0            0            0            0            0            0            0            0            0 
Loop time of 1.5e-06 on 1 procs for 0 steps with 2 atoms


next i
jump SELF loop

  reset_timestep $i
  reset_timestep 33
  set atom 2 x ${x2}
  set atom 2 x 3.7
  1 settings made for x
  run 0 pre yes post no # force neighborlist rebuild
WARNING: No fixes defined, atoms won't move (src/verlet.cpp:52)
Per MPI rank memory allocation (min/avg/max) = 7.073 | 7.073 | 7.073 Mbytes
Step Temp PotEng TotEng Press Volume E_bond E_angle E_dihed E_impro E_vdwl E_coul E_long E_tail v_e2body v_ecoul_tot 
      33            0            0            0            0        27000            0            0            0            0            0            0            0            0            0            0 
Loop time of 1.7e-06 on 1 procs for 0 steps with 2 atoms


next i
jump SELF loop

  reset_timestep $i
  reset_timestep 34
  set atom 2 x ${x2}
  set atom 2 x 3.8
  1 settings made for x
  run 0 pre yes post no # force neighborlist rebuild
WARNING: No fixes defined, atoms won't move (src/verlet.cpp:52)
Per MPI rank memory allocation (min/avg/max) = 7.073 | 7.073 | 7.073 Mbytes
Step Temp PotEng TotEng Press Volume E_bond E_angle E_dihed E_impro E_vdwl E_coul E_long E_tail v_e2body v_ecoul_tot 
      34            0            0            0            0        27000            0            0            0            0            0            0            0            0            0            0 
Loop time of 1.5e-06 on 1 procs for 0 steps with 2 atoms


next i
jump SELF loop

  reset_timestep $i
  reset_timestep 35
  set atom 2 x ${x2}
  set atom 2 x 3.9
  1 settings made for x
  run 0 pre yes post no # force neighborlist rebuild
WARNING: No fixes defined, atoms won't move (src/verlet.cpp:52)
Per MPI rank memory allocation (min/avg/max) = 7.073 | 7.073 | 7.073 Mbytes
Step Temp PotEng TotEng Press Volume E_bond E_angle E_dihed E_impro E_vdwl E_coul E_long E_tail v_e2body v_ecoul_tot 
      35            0            0            0            0        27000            0            0            0            0            0            0            0            0            0            0 
Loop time of 1.8e-06 on 1 procs for 0 steps with 2 atoms


next i
jump SELF loop

  reset_timestep $i
  reset_timestep 36
  set atom 2 x ${x2}
  set atom 2 x 4
  1 settings made for x
  run 0 pre yes post no # force neighborlist rebuild
WARNING: No fixes defined, atoms won't move (src/verlet.cpp:52)
Per MPI rank memory allocation (min/avg/max) = 7.073 | 7.073 | 7.073 Mbytes
Step Temp PotEng TotEng Press Volume E_bond E_angle E_dihed E_impro E_vdwl E_coul E_long E_tail v_e2body v_ecoul_tot 
      36            0            0            0            0        27000            0            0            0            0            0            0            0            0            0            0 
Loop time of 1.6e-06 on 1 procs for 0 steps with 2 atoms


next i
jump SELF loop

  reset_timestep $i
  reset_timestep 37
  set atom 2 x ${x2}
  set atom 2 x 4.1
  1 settings made for x
  run 0 pre yes post no # force neighborlist rebuild
WARNING: No fixes defined, atoms won't move (src/verlet.cpp:52)
Per MPI rank memory allocation (min/avg/max) = 7.073 | 7.073 | 7.073 Mbytes
Step Temp PotEng TotEng Press Volume E_bond E_angle E_dihed E_impro E_vdwl E_coul E_long E_tail v_e2body v_ecoul_tot 
      37            0            0            0            0        27000            0            0            0            0            0            0            0            0            0            0 
Loop time of 1.6e-06 on 1 procs for 0 steps with 2 atoms


next i
jump SELF loop

  reset_timestep $i
  reset_timestep 38
  set atom 2 x ${x2}
  set atom 2 x 4.2
  1 settings made for x
  run 0 pre yes post no # force neighborlist rebuild
WARNING: No fixes defined, atoms won't move (src/verlet.cpp:52)
Per MPI rank memory allocation (min/avg/max) = 7.073 | 7.073 | 7.073 Mbytes
Step Temp PotEng TotEng Press Volume E_bond E_angle E_dihed E_impro E_vdwl E_coul E_long E_tail v_e2body v_ecoul_tot 
      38            0            0            0            0        27000            0            0            0            0            0            0            0            0            0            0 
Loop time of 1.6e-06 on 1 procs for 0 steps with 2 atoms


next i
jump SELF loop

  reset_timestep $i
  reset_timestep 39
  set atom 2 x ${x2}
  set atom 2 x 4.3
  1 settings made for x
  run 0 pre yes post no # force neighborlist rebuild
WARNING: No fixes defined, atoms won't move (src/verlet.cpp:52)
Per MPI rank memory allocation (min/avg/max) = 7.073 | 7.073 | 7.073 Mbytes
Step Temp PotEng TotEng Press Volume E_bond E_angle E_dihed E_impro E_vdwl E_coul E_long E_tail v_e2body v_ecoul_tot 
      39            0            0            0            0        27000            0            0            0            0            0            0            0            0            0            0 
Loop time of 1.7e-06 on 1 procs for 0 steps with 2 atoms


next i
jump SELF loop

  reset_timestep $i
  reset_timestep 40
  set atom 2 x ${x2}
  set atom 2 x 4.4
  1 settings made for x
  run 0 pre yes post no # force neighborlist rebuild
WARNING: No fixes defined, atoms won't move (src/verlet.cpp:52)
Per MPI rank memory allocation (min/avg/max) = 7.073 | 7.073 | 7.073 Mbytes
Step Temp PotEng TotEng Press Volume E_bond E_angle E_dihed E_impro E_vdwl E_coul E_long E_tail v_e2body v_ecoul_tot 
      40            0            0            0            0        27000            0            0            0            0            0            0            0            0            0            0 
Loop time of 1.6e-06 on 1 procs for 0 steps with 2 atoms


next i
jump SELF loop

  reset_timestep $i
  reset_timestep 41
  set atom 2 x ${x2}
  set atom 2 x 4.5
  1 settings made for x
  run 0 pre yes post no # force neighborlist rebuild
WARNING: No fixes defined, atoms won't move (src/verlet.cpp:52)
Per MPI rank memory allocation (min/avg/max) = 7.073 | 7.073 | 7.073 Mbytes
Step Temp PotEng TotEng Press Volume E_bond E_angle E_dihed E_impro E_vdwl E_coul E_long E_tail v_e2body v_ecoul_tot 
      41            0            0            0            0        27000            0            0            0            0            0            0            0            0            0            0 
Loop time of 1.7e-06 on 1 procs for 0 steps with 2 atoms


next i
jump SELF loop

  reset_timestep $i
  reset_timestep 42
  set atom 2 x ${x2}
  set atom 2 x 4.6
  1 settings made for x
  run 0 pre yes post no # force neighborlist rebuild
WARNING: No fixes defined, atoms won't move (src/verlet.cpp:52)
Per MPI rank memory allocation (min/avg/max) = 7.073 | 7.073 | 7.073 Mbytes
Step Temp PotEng TotEng Press Volume E_bond E_angle E_dihed E_impro E_vdwl E_coul E_long E_tail v_e2body v_ecoul_tot 
      42            0            0            0            0        27000            0            0            0            0            0            0            0            0            0            0 
Loop time of 1.8e-06 on 1 procs for 0 steps with 2 atoms


next i
jump SELF loop

  reset_timestep $i
  reset_timestep 43
  set atom 2 x ${x2}
  set atom 2 x 4.7
  1 settings made for x
  run 0 pre yes post no # force neighborlist rebuild
WARNING: No fixes defined, atoms won't move (src/verlet.cpp:52)
Per MPI rank memory allocation (min/avg/max) = 7.073 | 7.073 | 7.073 Mbytes
Step Temp PotEng TotEng Press Volume E_bond E_angle E_dihed E_impro E_vdwl E_coul E_long E_tail v_e2body v_ecoul_tot 
      43            0            0            0            0        27000            0            0            0            0            0            0            0            0            0            0 
Loop time of 1.7e-06 on 1 procs for 0 steps with 2 atoms


next i
jump SELF loop

  reset_timestep $i
  reset_timestep 44
  set atom 2 x ${x2}
  set atom 2 x 4.8
  1 settings made for x
  run 0 pre yes post no # force neighborlist rebuild
WARNING: No fixes defined, atoms won't move (src/verlet.cpp:52)
Per MPI rank memory allocation (min/avg/max) = 7.073 | 7.073 | 7.073 Mbytes
Step Temp PotEng TotEng Press Volume E_bond E_angle E_dihed E_impro E_vdwl E_coul E_long E_tail v_e2body v_ecoul_tot 
      44            0            0            0            0        27000            0            0            0            0            0            0            0            0            0            0 
Loop time of 1.6e-06 on 1 procs for 0 steps with 2 atoms


next i
jump SELF loop

  reset_timestep $i
  reset_timestep 45
  set atom 2 x ${x2}
  set atom 2 x 4.9
  1 settings made for x
  run 0 pre yes post no # force neighborlist rebuild
WARNING: No fixes defined, atoms won't move (src/verlet.cpp:52)
Per MPI rank memory allocation (min/avg/max) = 7.073 | 7.073 | 7.073 Mbytes
Step Temp PotEng TotEng Press Volume E_bond E_angle E_dihed E_impro E_vdwl E_coul E_long E_tail v_e2body v_ecoul_tot 
      45            0            0            0            0        27000            0            0            0            0            0            0            0            0            0            0 
Loop time of 1.8e-06 on 1 procs for 0 steps with 2 atoms


next i
jump SELF loop

  reset_timestep $i
  reset_timestep 46
  set atom 2 x ${x2}
  set atom 2 x 5
  1 settings made for x
  run 0 pre yes post no # force neighborlist rebuild
WARNING: No fixes defined, atoms won't move (src/verlet.cpp:52)
Per MPI rank memory allocation (min/avg/max) = 7.073 | 7.073 | 7.073 Mbytes
Step Temp PotEng TotEng Press Volume E_bond E_angle E_dihed E_impro E_vdwl E_coul E_long E_tail v_e2body v_ecoul_tot 
      46            0            0            0            0        27000            0            0            0            0            0            0            0            0            0            0 
Loop time of 1.6e-06 on 1 procs for 0 steps with 2 atoms


next i
jump SELF loop

  reset_timestep $i
  reset_timestep 47
  set atom 2 x ${x2}
  set atom 2 x 5.1
  1 settings made for x
  run 0 pre yes post no # force neighborlist rebuild
WARNING: No fixes defined, atoms won't move (src/verlet.cpp:52)
Per MPI rank memory allocation (min/avg/max) = 7.073 | 7.073 | 7.073 Mbytes
Step Temp PotEng TotEng Press Volume E_bond E_angle E_dihed E_impro E_vdwl E_coul E_long E_tail v_e2body v_ecoul_tot 
      47            0            0            0            0        27000            0            0            0            0            0            0            0            0            0            0 
Loop time of 1.7e-06 on 1 procs for 0 steps with 2 atoms


next i
jump SELF loop

  reset_timestep $i
  reset_timestep 48
  set atom 2 x ${x2}
  set atom 2 x 5.2
  1 settings made for x
  run 0 pre yes post no # force neighborlist rebuild
WARNING: No fixes defined, atoms won't move (src/verlet.cpp:52)
Per MPI rank memory allocation (min/avg/max) = 7.073 | 7.073 | 7.073 Mbytes
Step Temp PotEng TotEng Press Volume E_bond E_angle E_dihed E_impro E_vdwl E_coul E_long E_tail v_e2body v_ecoul_tot 
      48            0            0            0            0        27000            0            0            0            0            0            0            0            0            0            0 
Loop time of 1.5e-06 on 1 procs for 0 steps with 2 atoms


next i
jump SELF loop

  reset_timestep $i
  reset_timestep 49
  set atom 2 x ${x2}
  set atom 2 x 5.3
  1 settings made for x
  run 0 pre yes post no # force neighborlist rebuild
WARNING: No fixes defined, atoms won't move (src/verlet.cpp:52)
Per MPI rank memory allocation (min/avg/max) = 7.073 | 7.073 | 7.073 Mbytes
Step Temp PotEng TotEng Press Volume E_bond E_angle E_dihed E_impro E_vdwl E_coul E_long E_tail v_e2body v_ecoul_tot 
      49            0            0            0            0        27000            0            0            0            0            0            0            0            0            0            0 
Loop time of 1.8e-06 on 1 procs for 0 steps with 2 atoms


next i
jump SELF loop

  reset_timestep $i
  reset_timestep 50
  set atom 2 x ${x2}
  set atom 2 x 5.4
  1 settings made for x
  run 0 pre yes post no # force neighborlist rebuild
WARNING: No fixes defined, atoms won't move (src/verlet.cpp:52)
Per MPI rank memory allocation (min/avg/max) = 7.073 | 7.073 | 7.073 Mbytes
Step Temp PotEng TotEng Press Volume E_bond E_angle E_dihed E_impro E_vdwl E_coul E_long E_tail v_e2body v_ecoul_tot 
      50            0            0            0            0        27000            0            0            0            0            0            0            0            0            0            0 
Loop time of 1.5e-06 on 1 procs for 0 steps with 2 atoms


next i
jump SELF loop

  reset_timestep $i
  reset_timestep 51
  set atom 2 x ${x2}
  set atom 2 x 5.5
  1 settings made for x
  run 0 pre yes post no # force neighborlist rebuild
WARNING: No fixes defined, atoms won't move (src/verlet.cpp:52)
Per MPI rank memory allocation (min/avg/max) = 7.073 | 7.073 | 7.073 Mbytes
Step Temp PotEng TotEng Press Volume E_bond E_angle E_dihed E_impro E_vdwl E_coul E_long E_tail v_e2body v_ecoul_tot 
      51            0            0            0            0        27000            0            0            0            0            0            0            0            0            0            0 
Loop time of 2e-06 on 1 procs for 0 steps with 2 atoms


next i
jump SELF loop

  reset_timestep $i
  reset_timestep 52
  set atom 2 x ${x2}
  set atom 2 x 5.6
  1 settings made for x
  run 0 pre yes post no # force neighborlist rebuild
WARNING: No fixes defined, atoms won't move (src/verlet.cpp:52)
Per MPI rank memory allocation (min/avg/max) = 7.073 | 7.073 | 7.073 Mbytes
Step Temp PotEng TotEng Press Volume E_bond E_angle E_dihed E_impro E_vdwl E_coul E_long E_tail v_e2body v_ecoul_tot 
      52            0            0            0            0        27000            0            0            0            0            0            0            0            0            0            0 
Loop time of 1.5e-06 on 1 procs for 0 steps with 2 atoms


next i
jump SELF loop

  reset_timestep $i
  reset_timestep 53
  set atom 2 x ${x2}
  set atom 2 x 5.7
  1 settings made for x
  run 0 pre yes post no # force neighborlist rebuild
WARNING: No fixes defined, atoms won't move (src/verlet.cpp:52)
Per MPI rank memory allocation (min/avg/max) = 7.073 | 7.073 | 7.073 Mbytes
Step Temp PotEng TotEng Press Volume E_bond E_angle E_dihed E_impro E_vdwl E_coul E_long E_tail v_e2body v_ecoul_tot 
      53            0            0            0            0        27000            0            0            0            0            0            0            0            0            0            0 
Loop time of 1.8e-06 on 1 procs for 0 steps with 2 atoms


next i
jump SELF loop

  reset_timestep $i
  reset_timestep 54
  set atom 2 x ${x2}
  set atom 2 x 5.8
  1 settings made for x
  run 0 pre yes post no # force neighborlist rebuild
WARNING: No fixes defined, atoms won't move (src/verlet.cpp:52)
Per MPI rank memory allocation (min/avg/max) = 7.073 | 7.073 | 7.073 Mbytes
Step Temp PotEng TotEng Press Volume E_bond E_angle E_dihed E_impro E_vdwl E_coul E_long E_tail v_e2body v_ecoul_tot 
      54            0            0            0            0        27000            0            0            0            0            0            0            0            0            0            0 
Loop time of 1.8e-06 on 1 procs for 0 steps with 2 atoms


next i
jump SELF loop

  reset_timestep $i
  reset_timestep 55
  set atom 2 x ${x2}
  set atom 2 x 5.9
  1 settings made for x
  run 0 pre yes post no # force neighborlist rebuild
WARNING: No fixes defined, atoms won't move (src/verlet.cpp:52)
Per MPI rank memory allocation (min/avg/max) = 7.073 | 7.073 | 7.073 Mbytes
Step Temp PotEng TotEng Press Volume E_bond E_angle E_dihed E_impro E_vdwl E_coul E_long E_tail v_e2body v_ecoul_tot 
      55            0            0            0            0        27000            0            0            0            0            0            0            0            0            0            0 
Loop time of 1.5e-06 on 1 procs for 0 steps with 2 atoms


next i
jump SELF loop

  reset_timestep $i
  reset_timestep 56
  set atom 2 x ${x2}
  set atom 2 x 6
  1 settings made for x
  run 0 pre yes post no # force neighborlist rebuild
WARNING: No fixes defined, atoms won't move (src/verlet.cpp:52)
Per MPI rank memory allocation (min/avg/max) = 7.073 | 7.073 | 7.073 Mbytes
Step Temp PotEng TotEng Press Volume E_bond E_angle E_dihed E_impro E_vdwl E_coul E_long E_tail v_e2body v_ecoul_tot 
      56            0            0            0            0        27000            0            0            0            0            0            0            0            0            0            0 
Loop time of 1.7e-06 on 1 procs for 0 steps with 2 atoms


next i
jump SELF loop

  reset_timestep $i
  reset_timestep 57
  set atom 2 x ${x2}
  set atom 2 x 6.1
  1 settings made for x
  run 0 pre yes post no # force neighborlist rebuild
WARNING: No fixes defined, atoms won't move (src/verlet.cpp:52)
Per MPI rank memory allocation (min/avg/max) = 7.073 | 7.073 | 7.073 Mbytes
Step Temp PotEng TotEng Press Volume E_bond E_angle E_dihed E_impro E_vdwl E_coul E_long E_tail v_e2body v_ecoul_tot 
      57            0            0            0            0        27000            0            0            0            0            0            0            0            0            0            0 
Loop time of 1.6e-06 on 1 procs for 0 steps with 2 atoms


next i
jump SELF loop

  reset_timestep $i
  reset_timestep 58
  set atom 2 x ${x2}
  set atom 2 x 6.2
  1 settings made for x
  run 0 pre yes post no # force neighborlist rebuild
WARNING: No fixes defined, atoms won't move (src/verlet.cpp:52)
Per MPI rank memory allocation (min/avg/max) = 7.073 | 7.073 | 7.073 Mbytes
Step Temp PotEng TotEng Press Volume E_bond E_angle E_dihed E_impro E_vdwl E_coul E_long E_tail v_e2body v_ecoul_tot 
      58            0            0            0            0        27000            0            0            0            0            0            0            0            0            0            0 
Loop time of 1.8e-06 on 1 procs for 0 steps with 2 atoms


next i
jump SELF loop

  reset_timestep $i
  reset_timestep 59
  set atom 2 x ${x2}
  set atom 2 x 6.3
  1 settings made for x
  run 0 pre yes post no # force neighborlist rebuild
WARNING: No fixes defined, atoms won't move (src/verlet.cpp:52)
Per MPI rank memory allocation (min/avg/max) = 7.073 | 7.073 | 7.073 Mbytes
Step Temp PotEng TotEng Press Volume E_bond E_angle E_dihed E_impro E_vdwl E_coul E_long E_tail v_e2body v_ecoul_tot 
      59            0            0            0            0        27000            0            0            0            0            0            0            0            0            0            0 
Loop time of 1.6e-06 on 1 procs for 0 steps with 2 atoms


next i
jump SELF loop

  reset_timestep $i
  reset_timestep 60
  set atom 2 x ${x2}
  set atom 2 x 6.4
  1 settings made for x
  run 0 pre yes post no # force neighborlist rebuild
WARNING: No fixes defined, atoms won't move (src/verlet.cpp:52)
Per MPI rank memory allocation (min/avg/max) = 7.073 | 7.073 | 7.073 Mbytes
Step Temp PotEng TotEng Press Volume E_bond E_angle E_dihed E_impro E_vdwl E_coul E_long E_tail v_e2body v_ecoul_tot 
      60            0            0            0            0        27000            0            0            0            0            0            0            0            0            0            0 
Loop time of 1.9e-06 on 1 procs for 0 steps with 2 atoms


next i
jump SELF loop

  reset_timestep $i
  reset_timestep 61
  set atom 2 x ${x2}
  set atom 2 x 6.5
  1 settings made for x
  run 0 pre yes post no # force neighborlist rebuild
WARNING: No fixes defined, atoms won't move (src/verlet.cpp:52)
Per MPI rank memory allocation (min/avg/max) = 7.073 | 7.073 | 7.073 Mbytes
Step Temp PotEng TotEng Press Volume E_bond E_angle E_dihed E_impro E_vdwl E_coul E_long E_tail v_e2body v_ecoul_tot 
      61            0            0            0            0        27000            0            0            0            0            0            0            0            0            0            0 
Loop time of 1.6e-06 on 1 procs for 0 steps with 2 atoms


next i
jump SELF loop

  reset_timestep $i
  reset_timestep 62
  set atom 2 x ${x2}
  set atom 2 x 6.6
  1 settings made for x
  run 0 pre yes post no # force neighborlist rebuild
WARNING: No fixes defined, atoms won't move (src/verlet.cpp:52)
Per MPI rank memory allocation (min/avg/max) = 7.073 | 7.073 | 7.073 Mbytes
Step Temp PotEng TotEng Press Volume E_bond E_angle E_dihed E_impro E_vdwl E_coul E_long E_tail v_e2body v_ecoul_tot 
      62            0            0            0            0        27000            0            0            0            0            0            0            0            0            0            0 
Loop time of 1.9e-06 on 1 procs for 0 steps with 2 atoms


next i
jump SELF loop

  reset_timestep $i
  reset_timestep 63
  set atom 2 x ${x2}
  set atom 2 x 6.7
  1 settings made for x
  run 0 pre yes post no # force neighborlist rebuild
WARNING: No fixes defined, atoms won't move (src/verlet.cpp:52)
Per MPI rank memory allocation (min/avg/max) = 7.073 | 7.073 | 7.073 Mbytes
Step Temp PotEng TotEng Press Volume E_bond E_angle E_dihed E_impro E_vdwl E_coul E_long E_tail v_e2body v_ecoul_tot 
      63            0            0            0            0        27000            0            0            0            0            0            0            0            0            0            0 
Loop time of 1.6e-06 on 1 procs for 0 steps with 2 atoms


next i
jump SELF loop

  reset_timestep $i
  reset_timestep 64
  set atom 2 x ${x2}
  set atom 2 x 6.8
  1 settings made for x
  run 0 pre yes post no # force neighborlist rebuild
WARNING: No fixes defined, atoms won't move (src/verlet.cpp:52)
Per MPI rank memory allocation (min/avg/max) = 7.073 | 7.073 | 7.073 Mbytes
Step Temp PotEng TotEng Press Volume E_bond E_angle E_dihed E_impro E_vdwl E_coul E_long E_tail v_e2body v_ecoul_tot 
      64            0            0            0            0        27000            0            0            0            0            0            0            0            0            0            0 
Loop time of 1.9e-06 on 1 procs for 0 steps with 2 atoms


next i
jump SELF loop

  reset_timestep $i
  reset_timestep 65
  set atom 2 x ${x2}
  set atom 2 x 6.9
  1 settings made for x
  run 0 pre yes post no # force neighborlist rebuild
WARNING: No fixes defined, atoms won't move (src/verlet.cpp:52)
Per MPI rank memory allocation (min/avg/max) = 7.073 | 7.073 | 7.073 Mbytes
Step Temp PotEng TotEng Press Volume E_bond E_angle E_dihed E_impro E_vdwl E_coul E_long E_tail v_e2body v_ecoul_tot 
      65            0            0            0            0        27000            0            0            0            0            0            0            0            0            0            0 
Loop time of 1.6e-06 on 1 procs for 0 steps with 2 atoms


next i
jump SELF loop

  reset_timestep $i
  reset_timestep 66
  set atom 2 x ${x2}
  set atom 2 x 7
  1 settings made for x
  run 0 pre yes post no # force neighborlist rebuild
WARNING: No fixes defined, atoms won't move (src/verlet.cpp:52)
Per MPI rank memory allocation (min/avg/max) = 7.073 | 7.073 | 7.073 Mbytes
Step Temp PotEng TotEng Press Volume E_bond E_angle E_dihed E_impro E_vdwl E_coul E_long E_tail v_e2body v_ecoul_tot 
      66            0            0            0            0        27000            0            0            0            0            0            0            0            0            0            0 
Loop time of 2.2e-06 on 1 procs for 0 steps with 2 atoms


next i
jump SELF loop

  reset_timestep $i
  reset_timestep 67
  set atom 2 x ${x2}
  set atom 2 x 7.1
  1 settings made for x
  run 0 pre yes post no # force neighborlist rebuild
WARNING: No fixes defined, atoms won't move (src/verlet.cpp:52)
Per MPI rank memory allocation (min/avg/max) = 7.073 | 7.073 | 7.073 Mbytes
Step Temp PotEng TotEng Press Volume E_bond E_angle E_dihed E_impro E_vdwl E_coul E_long E_tail v_e2body v_ecoul_tot 
      67            0            0            0            0        27000            0            0            0            0            0            0            0            0            0            0 
Loop time of 1.7e-06 on 1 procs for 0 steps with 2 atoms


next i
jump SELF loop

  reset_timestep $i
  reset_timestep 68
  set atom 2 x ${x2}
  set atom 2 x 7.2
  1 settings made for x
  run 0 pre yes post no # force neighborlist rebuild
WARNING: No fixes defined, atoms won't move (src/verlet.cpp:52)
Per MPI rank memory allocation (min/avg/max) = 7.073 | 7.073 | 7.073 Mbytes
Step Temp PotEng TotEng Press Volume E_bond E_angle E_dihed E_impro E_vdwl E_coul E_long E_tail v_e2body v_ecoul_tot 
      68            0            0            0            0        27000            0            0            0            0            0            0            0            0            0            0 
Loop time of 2.2e-06 on 1 procs for 0 steps with 2 atoms


next i
jump SELF loop

  reset_timestep $i
  reset_timestep 69
  set atom 2 x ${x2}
  set atom 2 x 7.3
  1 settings made for x
  run 0 pre yes post no # force neighborlist rebuild
WARNING: No fixes defined, atoms won't move (src/verlet.cpp:52)
Per MPI rank memory allocation (min/avg/max) = 7.073 | 7.073 | 7.073 Mbytes
Step Temp PotEng TotEng Press Volume E_bond E_angle E_dihed E_impro E_vdwl E_coul E_long E_tail v_e2body v_ecoul_tot 
      69            0            0            0            0        27000            0            0            0            0            0            0            0            0            0            0 
Loop time of 1.8e-06 on 1 procs for 0 steps with 2 atoms


next i
jump SELF loop

  reset_timestep $i
  reset_timestep 70
  set atom 2 x ${x2}
  set atom 2 x 7.4
  1 settings made for x
  run 0 pre yes post no # force neighborlist rebuild
WARNING: No fixes defined, atoms won't move (src/verlet.cpp:52)
Per MPI rank memory allocation (min/avg/max) = 7.073 | 7.073 | 7.073 Mbytes
Step Temp PotEng TotEng Press Volume E_bond E_angle E_dihed E_impro E_vdwl E_coul E_long E_tail v_e2body v_ecoul_tot 
      70            0            0            0            0        27000            0            0            0            0            0            0            0            0            0            0 
Loop time of 2.5e-06 on 1 procs for 0 steps with 2 atoms


next i
jump SELF loop

  reset_timestep $i
  reset_timestep 71
  set atom 2 x ${x2}
  set atom 2 x 7.5
  1 settings made for x
  run 0 pre yes post no # force neighborlist rebuild
WARNING: No fixes defined, atoms won't move (src/verlet.cpp:52)
Per MPI rank memory allocation (min/avg/max) = 7.073 | 7.073 | 7.073 Mbytes
Step Temp PotEng TotEng Press Volume E_bond E_angle E_dihed E_impro E_vdwl E_coul E_long E_tail v_e2body v_ecoul_tot 
      71            0            0            0            0        27000            0            0            0            0            0            0            0            0            0            0 
Loop time of 1.8e-06 on 1 procs for 0 steps with 2 atoms


next i
jump SELF loop

  reset_timestep $i
  reset_timestep 72
  set atom 2 x ${x2}
  set atom 2 x 7.6
  1 settings made for x
  run 0 pre yes post no # force neighborlist rebuild
WARNING: No fixes defined, atoms won't move (src/verlet.cpp:52)
Per MPI rank memory allocation (min/avg/max) = 7.073 | 7.073 | 7.073 Mbytes
Step Temp PotEng TotEng Press Volume E_bond E_angle E_dihed E_impro E_vdwl E_coul E_long E_tail v_e2body v_ecoul_tot 
      72            0            0            0            0        27000            0            0            0            0            0            0            0            0            0            0 
Loop time of 2.2e-06 on 1 procs for 0 steps with 2 atoms


next i
jump SELF loop

  reset_timestep $i
  reset_timestep 73
  set atom 2 x ${x2}
  set atom 2 x 7.7
  1 settings made for x
  run 0 pre yes post no # force neighborlist rebuild
WARNING: No fixes defined, atoms won't move (src/verlet.cpp:52)
Per MPI rank memory allocation (min/avg/max) = 7.073 | 7.073 | 7.073 Mbytes
Step Temp PotEng TotEng Press Volume E_bond E_angle E_dihed E_impro E_vdwl E_coul E_long E_tail v_e2body v_ecoul_tot 
      73            0            0            0            0        27000            0            0            0            0            0            0            0            0            0            0 
Loop time of 2.1e-06 on 1 procs for 0 steps with 2 atoms


next i
jump SELF loop

  reset_timestep $i
  reset_timestep 74
  set atom 2 x ${x2}
  set atom 2 x 7.8
  1 settings made for x
  run 0 pre yes post no # force neighborlist rebuild
WARNING: No fixes defined, atoms won't move (src/verlet.cpp:52)
Per MPI rank memory allocation (min/avg/max) = 7.073 | 7.073 | 7.073 Mbytes
Step Temp PotEng TotEng Press Volume E_bond E_angle E_dihed E_impro E_vdwl E_coul E_long E_tail v_e2body v_ecoul_tot 
      74            0            0            0            0        27000            0            0            0            0            0            0            0            0            0            0 
Loop time of 1.9e-06 on 1 procs for 0 steps with 2 atoms


next i
jump SELF loop

  reset_timestep $i
  reset_timestep 75
  set atom 2 x ${x2}
  set atom 2 x 7.9
  1 settings made for x
  run 0 pre yes post no # force neighborlist rebuild
WARNING: No fixes defined, atoms won't move (src/verlet.cpp:52)
Per MPI rank memory allocation (min/avg/max) = 7.073 | 7.073 | 7.073 Mbytes
Step Temp PotEng TotEng Press Volume E_bond E_angle E_dihed E_impro E_vdwl E_coul E_long E_tail v_e2body v_ecoul_tot 
      75            0            0            0            0        27000            0            0            0            0            0            0            0            0            0            0 
Loop time of 1.6e-06 on 1 procs for 0 steps with 2 atoms


next i
jump SELF loop

  reset_timestep $i
  reset_timestep 76
  set atom 2 x ${x2}
  set atom 2 x 8
  1 settings made for x
  run 0 pre yes post no # force neighborlist rebuild
WARNING: No fixes defined, atoms won't move (src/verlet.cpp:52)
Per MPI rank memory allocation (min/avg/max) = 7.073 | 7.073 | 7.073 Mbytes
Step Temp PotEng TotEng Press Volume E_bond E_angle E_dihed E_impro E_vdwl E_coul E_long E_tail v_e2body v_ecoul_tot 
      76            0            0            0            0        27000            0            0            0            0            0            0            0            0            0            0 
Loop time of 1.8e-06 on 1 procs for 0 steps with 2 atoms


next i
jump SELF loop

  reset_timestep $i
  reset_timestep 77
  set atom 2 x ${x2}
  set atom 2 x 8.1
  1 settings made for x
  run 0 pre yes post no # force neighborlist rebuild
WARNING: No fixes defined, atoms won't move (src/verlet.cpp:52)
Per MPI rank memory allocation (min/avg/max) = 7.073 | 7.073 | 7.073 Mbytes
Step Temp PotEng TotEng Press Volume E_bond E_angle E_dihed E_impro E_vdwl E_coul E_long E_tail v_e2body v_ecoul_tot 
      77            0            0            0            0        27000            0            0            0            0            0            0            0            0            0            0 
Loop time of 1.6e-06 on 1 procs for 0 steps with 2 atoms


next i
jump SELF loop

  reset_timestep $i
  reset_timestep 78
  set atom 2 x ${x2}
  set atom 2 x 8.2
  1 settings made for x
  run 0 pre yes post no # force neighborlist rebuild
WARNING: No fixes defined, atoms won't move (src/verlet.cpp:52)
Per MPI rank memory allocation (min/avg/max) = 7.073 | 7.073 | 7.073 Mbytes
Step Temp PotEng TotEng Press Volume E_bond E_angle E_dihed E_impro E_vdwl E_coul E_long E_tail v_e2body v_ecoul_tot 
      78            0            0            0            0        27000            0            0            0            0            0            0            0            0            0            0 
Loop time of 1.8e-06 on 1 procs for 0 steps with 2 atoms


next i
jump SELF loop

  reset_timestep $i
  reset_timestep 79
  set atom 2 x ${x2}
  set atom 2 x 8.3
  1 settings made for x
  run 0 pre yes post no # force neighborlist rebuild
WARNING: No fixes defined, atoms won't move (src/verlet.cpp:52)
Per MPI rank memory allocation (min/avg/max) = 7.073 | 7.073 | 7.073 Mbytes
Step Temp PotEng TotEng Press Volume E_bond E_angle E_dihed E_impro E_vdwl E_coul E_long E_tail v_e2body v_ecoul_tot 
      79            0            0            0            0        27000            0            0            0            0            0            0            0            0            0            0 
Loop time of 3.44e-05 on 1 procs for 0 steps with 2 atoms


next i
jump SELF loop

  reset_timestep $i
  reset_timestep 80
  set atom 2 x ${x2}
  set atom 2 x 8.4
  1 settings made for x
  run 0 pre yes post no # force neighborlist rebuild
WARNING: No fixes defined, atoms won't move (src/verlet.cpp:52)
Per MPI rank memory allocation (min/avg/max) = 7.073 | 7.073 | 7.073 Mbytes
Step Temp PotEng TotEng Press Volume E_bond E_angle E_dihed E_impro E_vdwl E_coul E_long E_tail v_e2body v_ecoul_tot 
      80            0            0            0            0        27000            0            0            0            0            0            0            0            0            0            0 
Loop time of 1.8e-06 on 1 procs for 0 steps with 2 atoms


next i
jump SELF loop

  reset_timestep $i
  reset_timestep 81
  set atom 2 x ${x2}
  set atom 2 x 8.5
  1 settings made for x
  run 0 pre yes post no # force neighborlist rebuild
WARNING: No fixes defined, atoms won't move (src/verlet.cpp:52)
Per MPI rank memory allocation (min/avg/max) = 7.073 | 7.073 | 7.073 Mbytes
Step Temp PotEng TotEng Press Volume E_bond E_angle E_dihed E_impro E_vdwl E_coul E_long E_tail v_e2body v_ecoul_tot 
      81            0            0            0            0        27000            0            0            0            0            0            0            0            0            0            0 
Loop time of 1.6e-06 on 1 procs for 0 steps with 2 atoms


next i
jump SELF loop

  reset_timestep $i
  reset_timestep 82
  set atom 2 x ${x2}
  set atom 2 x 8.6
  1 settings made for x
  run 0 pre yes post no # force neighborlist rebuild
WARNING: No fixes defined, atoms won't move (src/verlet.cpp:52)
Per MPI rank memory allocation (min/avg/max) = 7.073 | 7.073 | 7.073 Mbytes
Step Temp PotEng TotEng Press Volume E_bond E_angle E_dihed E_impro E_vdwl E_coul E_long E_tail v_e2body v_ecoul_tot 
      82            0            0            0            0        27000            0            0            0            0            0            0            0            0            0            0 
Loop time of 1.9e-06 on 1 procs for 0 steps with 2 atoms


next i
jump SELF loop

  reset_timestep $i
  reset_timestep 83
  set atom 2 x ${x2}
  set atom 2 x 8.7
  1 settings made for x
  run 0 pre yes post no # force neighborlist rebuild
WARNING: No fixes defined, atoms won't move (src/verlet.cpp:52)
Per MPI rank memory allocation (min/avg/max) = 7.073 | 7.073 | 7.073 Mbytes
Step Temp PotEng TotEng Press Volume E_bond E_angle E_dihed E_impro E_vdwl E_coul E_long E_tail v_e2body v_ecoul_tot 
      83            0            0            0            0        27000            0            0            0            0            0            0            0            0            0            0 
Loop time of 1.8e-06 on 1 procs for 0 steps with 2 atoms


next i
jump SELF loop

  reset_timestep $i
  reset_timestep 84
  set atom 2 x ${x2}
  set atom 2 x 8.8
  1 settings made for x
  run 0 pre yes post no # force neighborlist rebuild
WARNING: No fixes defined, atoms won't move (src/verlet.cpp:52)
Per MPI rank memory allocation (min/avg/max) = 7.073 | 7.073 | 7.073 Mbytes
Step Temp PotEng TotEng Press Volume E_bond E_angle E_dihed E_impro E_vdwl E_coul E_long E_tail v_e2body v_ecoul_tot 
      84            0            0            0            0        27000            0            0            0            0            0            0            0            0            0            0 
Loop time of 1.8e-06 on 1 procs for 0 steps with 2 atoms


next i
jump SELF loop

  reset_timestep $i
  reset_timestep 85
  set atom 2 x ${x2}
  set atom 2 x 8.9
  1 settings made for x
  run 0 pre yes post no # force neighborlist rebuild
WARNING: No fixes defined, atoms won't move (src/verlet.cpp:52)
Per MPI rank memory allocation (min/avg/max) = 7.073 | 7.073 | 7.073 Mbytes
Step Temp PotEng TotEng Press Volume E_bond E_angle E_dihed E_impro E_vdwl E_coul E_long E_tail v_e2body v_ecoul_tot 
      85            0            0            0            0        27000            0            0            0            0            0            0            0            0            0            0 
Loop time of 1.8e-06 on 1 procs for 0 steps with 2 atoms


next i
jump SELF loop

  reset_timestep $i
  reset_timestep 86
  set atom 2 x ${x2}
  set atom 2 x 9
  1 settings made for x
  run 0 pre yes post no # force neighborlist rebuild
WARNING: No fixes defined, atoms won't move (src/verlet.cpp:52)
Per MPI rank memory allocation (min/avg/max) = 7.073 | 7.073 | 7.073 Mbytes
Step Temp PotEng TotEng Press Volume E_bond E_angle E_dihed E_impro E_vdwl E_coul E_long E_tail v_e2body v_ecoul_tot 
      86            0            0            0            0        27000            0            0            0            0            0            0            0            0            0            0 
Loop time of 1.8e-06 on 1 procs for 0 steps with 2 atoms


next i
jump SELF loop

  reset_timestep $i
  reset_timestep 87
  set atom 2 x ${x2}
  set atom 2 x 9.1
  1 settings made for x
  run 0 pre yes post no # force neighborlist rebuild
WARNING: No fixes defined, atoms won't move (src/verlet.cpp:52)
Per MPI rank memory allocation (min/avg/max) = 7.073 | 7.073 | 7.073 Mbytes
Step Temp PotEng TotEng Press Volume E_bond E_angle E_dihed E_impro E_vdwl E_coul E_long E_tail v_e2body v_ecoul_tot 
      87            0            0            0            0        27000            0            0            0            0            0            0            0            0            0            0 
Loop time of 1.6e-06 on 1 procs for 0 steps with 2 atoms


next i
jump SELF loop

  reset_timestep $i
  reset_timestep 88
  set atom 2 x ${x2}
  set atom 2 x 9.2
  1 settings made for x
  run 0 pre yes post no # force neighborlist rebuild
WARNING: No fixes defined, atoms won't move (src/verlet.cpp:52)
Per MPI rank memory allocation (min/avg/max) = 7.073 | 7.073 | 7.073 Mbytes
Step Temp PotEng TotEng Press Volume E_bond E_angle E_dihed E_impro E_vdwl E_coul E_long E_tail v_e2body v_ecoul_tot 
      88            0            0            0            0        27000            0            0            0            0            0            0            0            0            0            0 
Loop time of 1.9e-06 on 1 procs for 0 steps with 2 atoms


next i
jump SELF loop

  reset_timestep $i
  reset_timestep 89
  set atom 2 x ${x2}
  set atom 2 x 9.3
  1 settings made for x
  run 0 pre yes post no # force neighborlist rebuild
WARNING: No fixes defined, atoms won't move (src/verlet.cpp:52)
Per MPI rank memory allocation (min/avg/max) = 7.073 | 7.073 | 7.073 Mbytes
Step Temp PotEng TotEng Press Volume E_bond E_angle E_dihed E_impro E_vdwl E_coul E_long E_tail v_e2body v_ecoul_tot 
      89            0            0            0            0        27000            0            0            0            0            0            0            0            0            0            0 
Loop time of 1.7e-06 on 1 procs for 0 steps with 2 atoms


next i
jump SELF loop

  reset_timestep $i
  reset_timestep 90
  set atom 2 x ${x2}
  set atom 2 x 9.4
  1 settings made for x
  run 0 pre yes post no # force neighborlist rebuild
WARNING: No fixes defined, atoms won't move (src/verlet.cpp:52)
Per MPI rank memory allocation (min/avg/max) = 7.073 | 7.073 | 7.073 Mbytes
Step Temp PotEng TotEng Press Volume E_bond E_angle E_dihed E_impro E_vdwl E_coul E_long E_tail v_e2body v_ecoul_tot 
      90            0            0            0            0        27000            0            0            0            0            0            0            0            0            0            0 
Loop time of 1.7e-06 on 1 procs for 0 steps with 2 atoms


next i
jump SELF loop

  reset_timestep $i
  reset_timestep 91
  set atom 2 x ${x2}
  set atom 2 x 9.5
  1 settings made for x
  run 0 pre yes post no # force neighborlist rebuild
WARNING: No fixes defined, atoms won't move (src/verlet.cpp:52)
Per MPI rank memory allocation (min/avg/max) = 7.073 | 7.073 | 7.073 Mbytes
Step Temp PotEng TotEng Press Volume E_bond E_angle E_dihed E_impro E_vdwl E_coul E_long E_tail v_e2body v_ecoul_tot 
      91            0            0            0            0        27000            0            0            0            0            0            0            0            0            0            0 
Loop time of 1.8e-06 on 1 procs for 0 steps with 2 atoms


next i
jump SELF loop

  reset_timestep $i
  reset_timestep 92
  set atom 2 x ${x2}
  set atom 2 x 9.6
  1 settings made for x
  run 0 pre yes post no # force neighborlist rebuild
WARNING: No fixes defined, atoms won't move (src/verlet.cpp:52)
Per MPI rank memory allocation (min/avg/max) = 7.073 | 7.073 | 7.073 Mbytes
Step Temp PotEng TotEng Press Volume E_bond E_angle E_dihed E_impro E_vdwl E_coul E_long E_tail v_e2body v_ecoul_tot 
      92            0            0            0            0        27000            0            0            0            0            0            0            0            0            0            0 
Loop time of 2e-06 on 1 procs for 0 steps with 2 atoms


next i
jump SELF loop

  reset_timestep $i
  reset_timestep 93
  set atom 2 x ${x2}
  set atom 2 x 9.7
  1 settings made for x
  run 0 pre yes post no # force neighborlist rebuild
WARNING: No fixes defined, atoms won't move (src/verlet.cpp:52)
Per MPI rank memory allocation (min/avg/max) = 7.073 | 7.073 | 7.073 Mbytes
Step Temp PotEng TotEng Press Volume E_bond E_angle E_dihed E_impro E_vdwl E_coul E_long E_tail v_e2body v_ecoul_tot 
      93            0            0            0            0        27000            0            0            0            0            0            0            0            0            0            0 
Loop time of 1.6e-06 on 1 procs for 0 steps with 2 atoms


next i
jump SELF loop

  reset_timestep $i
  reset_timestep 94
  set atom 2 x ${x2}
  set atom 2 x 9.8
  1 settings made for x
  run 0 pre yes post no # force neighborlist rebuild
WARNING: No fixes defined, atoms won't move (src/verlet.cpp:52)
Per MPI rank memory allocation (min/avg/max) = 7.073 | 7.073 | 7.073 Mbytes
Step Temp PotEng TotEng Press Volume E_bond E_angle E_dihed E_impro E_vdwl E_coul E_long E_tail v_e2body v_ecoul_tot 
      94            0            0            0            0        27000            0            0            0            0            0            0            0            0            0            0 
Loop time of 2.1e-06 on 1 procs for 0 steps with 2 atoms


next i
jump SELF loop

  reset_timestep $i
  reset_timestep 95
  set atom 2 x ${x2}
  set atom 2 x 9.9
  1 settings made for x
  run 0 pre yes post no # force neighborlist rebuild
WARNING: No fixes defined, atoms won't move (src/verlet.cpp:52)
Per MPI rank memory allocation (min/avg/max) = 7.073 | 7.073 | 7.073 Mbytes
Step Temp PotEng TotEng Press Volume E_bond E_angle E_dihed E_impro E_vdwl E_coul E_long E_tail v_e2body v_ecoul_tot 
      95            0            0            0            0        27000            0            0            0            0            0            0            0            0            0            0 
Loop time of 1.5e-06 on 1 procs for 0 steps with 2 atoms


next i
jump SELF loop

  reset_timestep $i
  reset_timestep 96
  set atom 2 x ${x2}
  set atom 2 x 10
  1 settings made for x
  run 0 pre yes post no # force neighborlist rebuild
WARNING: No fixes defined, atoms won't move (src/verlet.cpp:52)
Per MPI rank memory allocation (min/avg/max) = 7.073 | 7.073 | 7.073 Mbytes
Step Temp PotEng TotEng Press Volume E_bond E_angle E_dihed E_impro E_vdwl E_coul E_long E_tail v_e2body v_ecoul_tot 
      96            0            0            0            0        27000            0            0            0            0            0            0            0            0            0            0 
Loop time of 1.8e-06 on 1 procs for 0 steps with 2 atoms


next i
jump SELF loop

  reset_timestep $i
  reset_timestep 97
  set atom 2 x ${x2}
  set atom 2 x 10.1
  1 settings made for x
  run 0 pre yes post no # force neighborlist rebuild
WARNING: No fixes defined, atoms won't move (src/verlet.cpp:52)
Per MPI rank memory allocation (min/avg/max) = 7.073 | 7.073 | 7.073 Mbytes
Step Temp PotEng TotEng Press Volume E_bond E_angle E_dihed E_impro E_vdwl E_coul E_long E_tail v_e2body v_ecoul_tot 
      97            0            0            0            0        27000            0            0            0            0            0            0            0            0            0            0 
Loop time of 1.7e-06 on 1 procs for 0 steps with 2 atoms


next i
jump SELF loop

  reset_timestep $i
  reset_timestep 98
  set atom 2 x ${x2}
  set atom 2 x 10.2
  1 settings made for x
  run 0 pre yes post no # force neighborlist rebuild
WARNING: No fixes defined, atoms won't move (src/verlet.cpp:52)
Per MPI rank memory allocation (min/avg/max) = 7.073 | 7.073 | 7.073 Mbytes
Step Temp PotEng TotEng Press Volume E_bond E_angle E_dihed E_impro E_vdwl E_coul E_long E_tail v_e2body v_ecoul_tot 
      98            0            0            0            0        27000            0            0            0            0            0            0            0            0            0            0 
Loop time of 2e-06 on 1 procs for 0 steps with 2 atoms


next i
jump SELF loop

  reset_timestep $i
  reset_timestep 99
  set atom 2 x ${x2}
  set atom 2 x 10.3
  1 settings made for x
  run 0 pre yes post no # force neighborlist rebuild
WARNING: No fixes defined, atoms won't move (src/verlet.cpp:52)
Per MPI rank memory allocation (min/avg/max) = 7.073 | 7.073 | 7.073 Mbytes
Step Temp PotEng TotEng Press Volume E_bond E_angle E_dihed E_impro E_vdwl E_coul E_long E_tail v_e2body v_ecoul_tot 
      99            0            0            0            0        27000            0            0            0            0            0            0            0            0            0            0 
Loop time of 2e-06 on 1 procs for 0 steps with 2 atoms


next i
jump SELF loop

  reset_timestep $i
  reset_timestep 100
  set atom 2 x ${x2}
  set atom 2 x 10.4
  1 settings made for x
  run 0 pre yes post no # force neighborlist rebuild
WARNING: No fixes defined, atoms won't move (src/verlet.cpp:52)
Per MPI rank memory allocation (min/avg/max) = 7.073 | 7.073 | 7.073 Mbytes
Step Temp PotEng TotEng Press Volume E_bond E_angle E_dihed E_impro E_vdwl E_coul E_long E_tail v_e2body v_ecoul_tot 
     100            0            0            0            0        27000            0            0            0            0            0            0            0            0            0            0 
Loop time of 1.9e-06 on 1 procs for 0 steps with 2 atoms


next i
jump SELF loop

  reset_timestep $i
  reset_timestep 101
  set atom 2 x ${x2}
  set atom 2 x 10.5
  1 settings made for x
  run 0 pre yes post no # force neighborlist rebuild
WARNING: No fixes defined, atoms won't move (src/verlet.cpp:52)
Per MPI rank memory allocation (min/avg/max) = 7.073 | 7.073 | 7.073 Mbytes
Step Temp PotEng TotEng Press Volume E_bond E_angle E_dihed E_impro E_vdwl E_coul E_long E_tail v_e2body v_ecoul_tot 
     101            0            0            0            0        27000            0            0            0            0            0            0            0            0            0            0 
Loop time of 1.8e-06 on 1 procs for 0 steps with 2 atoms


next i
jump SELF loop

  reset_timestep $i
  reset_timestep 102
  set atom 2 x ${x2}
  set atom 2 x 10.6
  1 settings made for x
  run 0 pre yes post no # force neighborlist rebuild
WARNING: No fixes defined, atoms won't move (src/verlet.cpp:52)
Per MPI rank memory allocation (min/avg/max) = 7.073 | 7.073 | 7.073 Mbytes
Step Temp PotEng TotEng Press Volume E_bond E_angle E_dihed E_impro E_vdwl E_coul E_long E_tail v_e2body v_ecoul_tot 
     102            0            0            0            0        27000            0            0            0            0            0            0            0            0            0            0 
Loop time of 2e-06 on 1 procs for 0 steps with 2 atoms


next i
jump SELF loop

  reset_timestep $i
  reset_timestep 103
  set atom 2 x ${x2}
  set atom 2 x 10.7
  1 settings made for x
  run 0 pre yes post no # force neighborlist rebuild
WARNING: No fixes defined, atoms won't move (src/verlet.cpp:52)
Per MPI rank memory allocation (min/avg/max) = 7.073 | 7.073 | 7.073 Mbytes
Step Temp PotEng TotEng Press Volume E_bond E_angle E_dihed E_impro E_vdwl E_coul E_long E_tail v_e2body v_ecoul_tot 
     103            0            0            0            0        27000            0            0            0            0            0            0            0            0            0            0 
Loop time of 4e-06 on 1 procs for 0 steps with 2 atoms


next i
jump SELF loop

  reset_timestep $i
  reset_timestep 104
  set atom 2 x ${x2}
  set atom 2 x 10.8
  1 settings made for x
  run 0 pre yes post no # force neighborlist rebuild
WARNING: No fixes defined, atoms won't move (src/verlet.cpp:52)
Per MPI rank memory allocation (min/avg/max) = 7.073 | 7.073 | 7.073 Mbytes
Step Temp PotEng TotEng Press Volume E_bond E_angle E_dihed E_impro E_vdwl E_coul E_long E_tail v_e2body v_ecoul_tot 
     104            0            0            0            0        27000            0            0            0            0            0            0            0            0            0            0 
Loop time of 2.1e-06 on 1 procs for 0 steps with 2 atoms


next i
jump SELF loop

  reset_timestep $i
  reset_timestep 105
  set atom 2 x ${x2}
  set atom 2 x 10.9
  1 settings made for x
  run 0 pre yes post no # force neighborlist rebuild
WARNING: No fixes defined, atoms won't move (src/verlet.cpp:52)
Per MPI rank memory allocation (min/avg/max) = 7.073 | 7.073 | 7.073 Mbytes
Step Temp PotEng TotEng Press Volume E_bond E_angle E_dihed E_impro E_vdwl E_coul E_long E_tail v_e2body v_ecoul_tot 
     105            0            0            0            0        27000            0            0            0            0            0            0            0            0            0            0 
Loop time of 1.9e-06 on 1 procs for 0 steps with 2 atoms


next i
jump SELF loop

  reset_timestep $i
  reset_timestep 106
  set atom 2 x ${x2}
  set atom 2 x 11
  1 settings made for x
  run 0 pre yes post no # force neighborlist rebuild
WARNING: No fixes defined, atoms won't move (src/verlet.cpp:52)
Per MPI rank memory allocation (min/avg/max) = 7.073 | 7.073 | 7.073 Mbytes
Step Temp PotEng TotEng Press Volume E_bond E_angle E_dihed E_impro E_vdwl E_coul E_long E_tail v_e2body v_ecoul_tot 
     106            0            0            0            0        27000            0            0            0            0            0            0            0            0            0            0 
Loop time of 1.7e-06 on 1 procs for 0 steps with 2 atoms


next i
jump SELF loop

  reset_timestep $i
  reset_timestep 107
  set atom 2 x ${x2}
  set atom 2 x 11.1
  1 settings made for x
  run 0 pre yes post no # force neighborlist rebuild
WARNING: No fixes defined, atoms won't move (src/verlet.cpp:52)
Per MPI rank memory allocation (min/avg/max) = 7.073 | 7.073 | 7.073 Mbytes
Step Temp PotEng TotEng Press Volume E_bond E_angle E_dihed E_impro E_vdwl E_coul E_long E_tail v_e2body v_ecoul_tot 
     107            0            0            0            0        27000            0            0            0            0            0            0            0            0            0            0 
Loop time of 1.6e-06 on 1 procs for 0 steps with 2 atoms


next i
jump SELF loop

  reset_timestep $i
  reset_timestep 108
  set atom 2 x ${x2}
  set atom 2 x 11.2
  1 settings made for x
  run 0 pre yes post no # force neighborlist rebuild
WARNING: No fixes defined, atoms won't move (src/verlet.cpp:52)
Per MPI rank memory allocation (min/avg/max) = 7.073 | 7.073 | 7.073 Mbytes
Step Temp PotEng TotEng Press Volume E_bond E_angle E_dihed E_impro E_vdwl E_coul E_long E_tail v_e2body v_ecoul_tot 
     108            0            0            0            0        27000            0            0            0            0            0            0            0            0            0            0 
Loop time of 1.8e-06 on 1 procs for 0 steps with 2 atoms


next i
jump SELF loop

  reset_timestep $i
  reset_timestep 109
  set atom 2 x ${x2}
  set atom 2 x 11.3
  1 settings made for x
  run 0 pre yes post no # force neighborlist rebuild
WARNING: No fixes defined, atoms won't move (src/verlet.cpp:52)
Per MPI rank memory allocation (min/avg/max) = 7.073 | 7.073 | 7.073 Mbytes
Step Temp PotEng TotEng Press Volume E_bond E_angle E_dihed E_impro E_vdwl E_coul E_long E_tail v_e2body v_ecoul_tot 
     109            0            0            0            0        27000            0            0            0            0            0            0            0            0            0            0 
Loop time of 1.6e-06 on 1 procs for 0 steps with 2 atoms


next i
jump SELF loop

  reset_timestep $i
  reset_timestep 110
  set atom 2 x ${x2}
  set atom 2 x 11.4
  1 settings made for x
  run 0 pre yes post no # force neighborlist rebuild
[...]
Loop time of 1.7e-06 on 1 procs for 0 steps with 2 atoms


next i
jump SELF loop

  reset_timestep $i
  reset_timestep 265
  set atom 2 x ${x2}
  set atom 2 x 26.9
  1 settings made for x
  run 0 pre yes post no # force neighborlist rebuild
WARNING: No fixes defined, atoms won't move (src/verlet.cpp:52)
Per MPI rank memory allocation (min/avg/max) = 7.073 | 7.073 | 7.073 Mbytes
Step Temp PotEng TotEng Press Volume E_bond E_angle E_dihed E_impro E_vdwl E_coul E_long E_tail v_e2body v_ecoul_tot 
     265            0            0            0            0        27000            0            0            0            0            0            0            0            0            0            0 
Loop time of 1.8e-06 on 1 procs for 0 steps with 2 atoms


next i
jump SELF loop

  reset_timestep $i
  reset_timestep 266
  set atom 2 x ${x2}
  set atom 2 x 27
  1 settings made for x
  run 0 pre yes post no # force neighborlist rebuild
WARNING: No fixes defined, atoms won't move (src/verlet.cpp:52)
Per MPI rank memory allocation (min/avg/max) = 7.073 | 7.073 | 7.073 Mbytes
Step Temp PotEng TotEng Press Volume E_bond E_angle E_dihed E_impro E_vdwl E_coul E_long E_tail v_e2body v_ecoul_tot 
     266            0            0            0            0        27000            0            0            0            0            0            0            0            0            0            0 
Loop time of 1.7e-06 on 1 procs for 0 steps with 2 atoms


next i
jump SELF loop

  reset_timestep $i
  reset_timestep 267
  set atom 2 x ${x2}
  set atom 2 x 27.1
  1 settings made for x
  run 0 pre yes post no # force neighborlist rebuild
WARNING: No fixes defined, atoms won't move (src/verlet.cpp:52)
Per MPI rank memory allocation (min/avg/max) = 7.073 | 7.073 | 7.073 Mbytes
Step Temp PotEng TotEng Press Volume E_bond E_angle E_dihed E_impro E_vdwl E_coul E_long E_tail v_e2body v_ecoul_tot 
     267            0            0            0            0        27000            0            0            0            0            0            0            0            0            0            0 
Loop time of 1.8e-06 on 1 procs for 0 steps with 2 atoms


next i
jump SELF loop

  reset_timestep $i
  reset_timestep 268
  set atom 2 x ${x2}
  set atom 2 x 27.2
  1 settings made for x
  run 0 pre yes post no # force neighborlist rebuild
WARNING: No fixes defined, atoms won't move (src/verlet.cpp:52)
Per MPI rank memory allocation (min/avg/max) = 7.073 | 7.073 | 7.073 Mbytes
Step Temp PotEng TotEng Press Volume E_bond E_angle E_dihed E_impro E_vdwl E_coul E_long E_tail v_e2body v_ecoul_tot 
     268            0            0            0            0        27000            0            0            0            0            0            0            0            0            0            0 
Loop time of 1.7e-06 on 1 procs for 0 steps with 2 atoms


next i
jump SELF loop

  reset_timestep $i
  reset_timestep 269
  set atom 2 x ${x2}
  set atom 2 x 27.3
  1 settings made for x
  run 0 pre yes post no # force neighborlist rebuild
WARNING: No fixes defined, atoms won't move (src/verlet.cpp:52)
Per MPI rank memory allocation (min/avg/max) = 7.073 | 7.073 | 7.073 Mbytes
Step Temp PotEng TotEng Press Volume E_bond E_angle E_dihed E_impro E_vdwl E_coul E_long E_tail v_e2body v_ecoul_tot 
     269            0            0            0            0        27000            0            0            0            0            0            0            0            0            0            0 
Loop time of 2e-06 on 1 procs for 0 steps with 2 atoms


next i
jump SELF loop

  reset_timestep $i
  reset_timestep 270
  set atom 2 x ${x2}
  set atom 2 x 27.4
  1 settings made for x
  run 0 pre yes post no # force neighborlist rebuild
WARNING: No fixes defined, atoms won't move (src/verlet.cpp:52)
Per MPI rank memory allocation (min/avg/max) = 7.073 | 7.073 | 7.073 Mbytes
Step Temp PotEng TotEng Press Volume E_bond E_angle E_dihed E_impro E_vdwl E_coul E_long E_tail v_e2body v_ecoul_tot 
     270            0            0            0            0        27000            0            0            0            0            0            0            0            0            0            0 
Loop time of 1.7e-06 on 1 procs for 0 steps with 2 atoms


next i
jump SELF loop

  reset_timestep $i
  reset_timestep 271
  set atom 2 x ${x2}
  set atom 2 x 27.5
  1 settings made for x
  run 0 pre yes post no # force neighborlist rebuild
WARNING: No fixes defined, atoms won't move (src/verlet.cpp:52)
Per MPI rank memory allocation (min/avg/max) = 7.073 | 7.073 | 7.073 Mbytes
Step Temp PotEng TotEng Press Volume E_bond E_angle E_dihed E_impro E_vdwl E_coul E_long E_tail v_e2body v_ecoul_tot 
     271            0            0            0            0        27000            0            0            0            0            0            0            0            0            0            0 
Loop time of 1.9e-06 on 1 procs for 0 steps with 2 atoms


next i
jump SELF loop

  reset_timestep $i
  reset_timestep 272
  set atom 2 x ${x2}
  set atom 2 x 27.6
  1 settings made for x
  run 0 pre yes post no # force neighborlist rebuild
WARNING: No fixes defined, atoms won't move (src/verlet.cpp:52)
Per MPI rank memory allocation (min/avg/max) = 7.073 | 7.073 | 7.073 Mbytes
Step Temp PotEng TotEng Press Volume E_bond E_angle E_dihed E_impro E_vdwl E_coul E_long E_tail v_e2body v_ecoul_tot 
     272            0 -0.010410798 -0.010410798 -1.5342272e-06        27000            0            0            0            0 -0.010410798            0            0            0 -0.010410798            0 
Loop time of 1.7e-06 on 1 procs for 0 steps with 2 atoms


next i
jump SELF loop

  reset_timestep $i
  reset_timestep 273
  set atom 2 x ${x2}
  set atom 2 x 27.7
  1 settings made for x
  run 0 pre yes post no # force neighborlist rebuild
WARNING: No fixes defined, atoms won't move (src/verlet.cpp:52)
Per MPI rank memory allocation (min/avg/max) = 7.073 | 7.073 | 7.073 Mbytes
Step Temp PotEng TotEng Press Volume E_bond E_angle E_dihed E_impro E_vdwl E_coul E_long E_tail v_e2body v_ecoul_tot 
     273            0 -0.013418974 -0.013418974 -1.9744757e-06        27000            0            0            0            0 -0.013418974            0            0            0 -0.013418974            0 
Loop time of 1.9e-06 on 1 procs for 0 steps with 2 atoms


next i
jump SELF loop

  reset_timestep $i
  reset_timestep 274
  set atom 2 x ${x2}
  set atom 2 x 27.8
  1 settings made for x
  run 0 pre yes post no # force neighborlist rebuild
WARNING: No fixes defined, atoms won't move (src/verlet.cpp:52)
Per MPI rank memory allocation (min/avg/max) = 7.073 | 7.073 | 7.073 Mbytes
Step Temp PotEng TotEng Press Volume E_bond E_angle E_dihed E_impro E_vdwl E_coul E_long E_tail v_e2body v_ecoul_tot 
     274            0 -0.017484229 -0.017484229 -2.567207e-06        27000            0            0            0            0 -0.017484229            0            0            0 -0.017484229            0 
Loop time of 1.7e-06 on 1 procs for 0 steps with 2 atoms


next i
jump SELF loop

  reset_timestep $i
  reset_timestep 275
  set atom 2 x ${x2}
  set atom 2 x 27.9
  1 settings made for x
  run 0 pre yes post no # force neighborlist rebuild
WARNING: No fixes defined, atoms won't move (src/verlet.cpp:52)
Per MPI rank memory allocation (min/avg/max) = 7.073 | 7.073 | 7.073 Mbytes
Step Temp PotEng TotEng Press Volume E_bond E_angle E_dihed E_impro E_vdwl E_coul E_long E_tail v_e2body v_ecoul_tot 
     275            0 -0.023047338 -0.023047338 -3.3741399e-06        27000            0            0            0            0 -0.023047338            0            0            0 -0.023047338            0 
Loop time of 1.9e-06 on 1 procs for 0 steps with 2 atoms


next i
jump SELF loop

  reset_timestep $i
  reset_timestep 276
  set atom 2 x ${x2}
  set atom 2 x 28
  1 settings made for x
  run 0 pre yes post no # force neighborlist rebuild
WARNING: No fixes defined, atoms won't move (src/verlet.cpp:52)
Per MPI rank memory allocation (min/avg/max) = 7.073 | 7.073 | 7.073 Mbytes
Step Temp PotEng TotEng Press Volume E_bond E_angle E_dihed E_impro E_vdwl E_coul E_long E_tail v_e2body v_ecoul_tot 
     276            0 -0.030761719 -0.030761719 -4.4849537e-06        27000            0            0            0            0 -0.030761719            0            0            0 -0.030761719            0 
Loop time of 2e-06 on 1 procs for 0 steps with 2 atoms


next i
jump SELF loop

  reset_timestep $i
  reset_timestep 277
  set atom 2 x ${x2}
  set atom 2 x 28.1
  1 settings made for x
  run 0 pre yes post no # force neighborlist rebuild
WARNING: No fixes defined, atoms won't move (src/verlet.cpp:52)
Per MPI rank memory allocation (min/avg/max) = 7.073 | 7.073 | 7.073 Mbytes
Step Temp PotEng TotEng Press Volume E_bond E_angle E_dihed E_impro E_vdwl E_coul E_long E_tail v_e2body v_ecoul_tot 
     277            0  -0.04160807  -0.04160807 -6.0302886e-06        27000            0            0            0            0  -0.04160807            0            0            0  -0.04160807            0 
Loop time of 1.8e-06 on 1 procs for 0 steps with 2 atoms


next i
jump SELF loop

  reset_timestep $i
  reset_timestep 278
  set atom 2 x ${x2}
  set atom 2 x 28.2
  1 settings made for x
  run 0 pre yes post no # force neighborlist rebuild
WARNING: No fixes defined, atoms won't move (src/verlet.cpp:52)
Per MPI rank memory allocation (min/avg/max) = 7.073 | 7.073 | 7.073 Mbytes
Step Temp PotEng TotEng Press Volume E_bond E_angle E_dihed E_impro E_vdwl E_coul E_long E_tail v_e2body v_ecoul_tot 
     278            0 -0.057073528 -0.057073528 -8.19921e-06        27000            0            0            0            0 -0.057073528            0            0            0 -0.057073528            0 
Loop time of 2e-06 on 1 procs for 0 steps with 2 atoms


next i
jump SELF loop

  reset_timestep $i
  reset_timestep 279
  set atom 2 x ${x2}
  set atom 2 x 28.3
  1 settings made for x
  run 0 pre yes post no # force neighborlist rebuild
WARNING: No fixes defined, atoms won't move (src/verlet.cpp:52)
Per MPI rank memory allocation (min/avg/max) = 7.073 | 7.073 | 7.073 Mbytes
Step Temp PotEng TotEng Press Volume E_bond E_angle E_dihed E_impro E_vdwl E_coul E_long E_tail v_e2body v_ecoul_tot 
     279            0  -0.07942563  -0.07942563 -1.1258203e-05        27000            0            0            0            0  -0.07942563            0            0            0  -0.07942563            0 
Loop time of 1.6e-06 on 1 procs for 0 steps with 2 atoms


next i
jump SELF loop

  reset_timestep $i
  reset_timestep 280
  set atom 2 x ${x2}
  set atom 2 x 28.4
  1 settings made for x
  run 0 pre yes post no # force neighborlist rebuild
WARNING: No fixes defined, atoms won't move (src/verlet.cpp:52)
Per MPI rank memory allocation (min/avg/max) = 7.073 | 7.073 | 7.073 Mbytes
Step Temp PotEng TotEng Press Volume E_bond E_angle E_dihed E_impro E_vdwl E_coul E_long E_tail v_e2body v_ecoul_tot 
     280            0  -0.11210386  -0.11210386 -1.5555324e-05        27000            0            0            0            0  -0.11210386            0            0            0  -0.11210386            0 
Loop time of 1.9e-06 on 1 procs for 0 steps with 2 atoms


next i
jump SELF loop

  reset_timestep $i
  reset_timestep 281
  set atom 2 x ${x2}
  set atom 2 x 28.5
  1 settings made for x
  run 0 pre yes post no # force neighborlist rebuild
WARNING: No fixes defined, atoms won't move (src/verlet.cpp:52)
Per MPI rank memory allocation (min/avg/max) = 7.073 | 7.073 | 7.073 Mbytes
Step Temp PotEng TotEng Press Volume E_bond E_angle E_dihed E_impro E_vdwl E_coul E_long E_tail v_e2body v_ecoul_tot 
     281            0   -0.1601683   -0.1601683 -2.1444978e-05        27000            0            0            0            0   -0.1601683            0            0            0   -0.1601683            0 
Loop time of 1.6e-06 on 1 procs for 0 steps with 2 atoms


next i
jump SELF loop

  reset_timestep $i
  reset_timestep 282
  set atom 2 x ${x2}
  set atom 2 x 28.6
  1 settings made for x
  run 0 pre yes post no # force neighborlist rebuild
WARNING: No fixes defined, atoms won't move (src/verlet.cpp:52)
Per MPI rank memory allocation (min/avg/max) = 7.073 | 7.073 | 7.073 Mbytes
Step Temp PotEng TotEng Press Volume E_bond E_angle E_dihed E_impro E_vdwl E_coul E_long E_tail v_e2body v_ecoul_tot 
     282            0  -0.23034346  -0.23034346 -2.8898712e-05        27000            0            0            0            0  -0.23034346            0            0            0  -0.23034346            0 
Loop time of 1.9e-06 on 1 procs for 0 steps with 2 atoms


next i
jump SELF loop

  reset_timestep $i
  reset_timestep 283
  set atom 2 x ${x2}
  set atom 2 x 28.7
  1 settings made for x
  run 0 pre yes post no # force neighborlist rebuild
WARNING: No fixes defined, atoms won't move (src/verlet.cpp:52)
Per MPI rank memory allocation (min/avg/max) = 7.073 | 7.073 | 7.073 Mbytes
Step Temp PotEng TotEng Press Volume E_bond E_angle E_dihed E_impro E_vdwl E_coul E_long E_tail v_e2body v_ecoul_tot 
     283            0  -0.32850846  -0.32850846 -3.5950295e-05        27000            0            0            0            0  -0.32850846            0            0            0  -0.32850846            0 
Loop time of 1.6e-06 on 1 procs for 0 steps with 2 atoms


next i
jump SELF loop

  reset_timestep $i
  reset_timestep 284
  set atom 2 x ${x2}
  set atom 2 x 28.8
  1 settings made for x
  run 0 pre yes post no # force neighborlist rebuild
WARNING: No fixes defined, atoms won't move (src/verlet.cpp:52)
Per MPI rank memory allocation (min/avg/max) = 7.073 | 7.073 | 7.073 Mbytes
Step Temp PotEng TotEng Press Volume E_bond E_angle E_dihed E_impro E_vdwl E_coul E_long E_tail v_e2body v_ecoul_tot 
     284            0  -0.44548264  -0.44548264 -3.2765827e-05        27000            0            0            0            0  -0.44548264            0            0            0  -0.44548264            0 
Loop time of 1.9e-06 on 1 procs for 0 steps with 2 atoms


next i
jump SELF loop

  reset_timestep $i
  reset_timestep 285
  set atom 2 x ${x2}
  set atom 2 x 28.9
  1 settings made for x
  run 0 pre yes post no # force neighborlist rebuild
WARNING: No fixes defined, atoms won't move (src/verlet.cpp:52)
Per MPI rank memory allocation (min/avg/max) = 7.073 | 7.073 | 7.073 Mbytes
Step Temp PotEng TotEng Press Volume E_bond E_angle E_dihed E_impro E_vdwl E_coul E_long E_tail v_e2body v_ecoul_tot 
     285            0  -0.49168622  -0.49168622 2.1566728e-05        27000            0            0            0            0  -0.49168622            0            0            0  -0.49168622            0 
Loop time of 1.8e-06 on 1 procs for 0 steps with 2 atoms


next i
jump SELF loop

  reset_timestep $i
  reset_timestep 286
  set atom 2 x ${x2}
  set atom 2 x 29
  1 settings made for x
  run 0 pre yes post no # force neighborlist rebuild
WARNING: No fixes defined, atoms won't move (src/verlet.cpp:52)
Per MPI rank memory allocation (min/avg/max) = 7.073 | 7.073 | 7.073 Mbytes
Step Temp PotEng TotEng Press Volume E_bond E_angle E_dihed E_impro E_vdwl E_coul E_long E_tail v_e2body v_ecoul_tot 
     286            0            0            0 0.0002962963        27000            0            0            0            0            0            0            0            0            0            0 
Loop time of 1.9e-06 on 1 procs for 0 steps with 2 atoms


next i
jump SELF loop

  reset_timestep $i
  reset_timestep 287
  set atom 2 x ${x2}
  set atom 2 x 29.1
  1 settings made for x
  run 0 pre yes post no # force neighborlist rebuild
WARNING: No fixes defined, atoms won't move (src/verlet.cpp:52)
Per MPI rank memory allocation (min/avg/max) = 7.073 | 7.073 | 7.073 Mbytes
Step Temp PotEng TotEng Press Volume E_bond E_angle E_dihed E_impro E_vdwl E_coul E_long E_tail v_e2body v_ecoul_tot 
     287            0    3.3180595    3.3180595 0.0015406625        27000            0            0            0            0    3.3180595            0            0            0    3.3180595            0 
Loop time of 1.8e-06 on 1 procs for 0 steps with 2 atoms


next i
jump SELF loop

  reset_timestep $i
  reset_timestep 288
  set atom 2 x ${x2}
  set atom 2 x 29.2
  1 settings made for x
  run 0 pre yes post no # force neighborlist rebuild
WARNING: No fixes defined, atoms won't move (src/verlet.cpp:52)
Per MPI rank memory allocation (min/avg/max) = 7.073 | 7.073 | 7.073 Mbytes
Step Temp PotEng TotEng Press Volume E_bond E_angle E_dihed E_impro E_vdwl E_coul E_long E_tail v_e2body v_ecoul_tot 
     288            0    21.474436    21.474436 0.0074930765        27000            0            0            0            0    21.474436            0            0            0    21.474436            0 
Loop time of 1.8e-06 on 1 procs for 0 steps with 2 atoms


next i
jump SELF loop

  reset_timestep $i
  reset_timestep 289
  set atom 2 x ${x2}
  set atom 2 x 29.3
  1 settings made for x
  run 0 pre yes post no # force neighborlist rebuild
WARNING: No fixes defined, atoms won't move (src/verlet.cpp:52)
Per MPI rank memory allocation (min/avg/max) = 7.073 | 7.073 | 7.073 Mbytes
Step Temp PotEng TotEng Press Volume E_bond E_angle E_dihed E_impro E_vdwl E_coul E_long E_tail v_e2body v_ecoul_tot 
     289            0    127.49551    127.49551  0.040294925        27000            0            0            0            0    127.49551            0            0            0    127.49551            0 
Loop time of 2.2e-06 on 1 procs for 0 steps with 2 atoms


next i
jump SELF loop

  reset_timestep $i
  reset_timestep 290
  set atom 2 x ${x2}
  set atom 2 x 29.4
  1 settings made for x
  run 0 pre yes post no # force neighborlist rebuild
WARNING: No fixes defined, atoms won't move (src/verlet.cpp:52)
Per MPI rank memory allocation (min/avg/max) = 7.073 | 7.073 | 7.073 Mbytes
Step Temp PotEng TotEng Press Volume E_bond E_angle E_dihed E_impro E_vdwl E_coul E_long E_tail v_e2body v_ecoul_tot 
     290            0    875.92037    875.92037   0.26588262        27000            0            0            0            0    875.92037            0            0            0    875.92037            0 
Loop time of 1.9e-06 on 1 procs for 0 steps with 2 atoms


next i
jump SELF loop

  reset_timestep $i
  reset_timestep 291
  set atom 2 x ${x2}
  set atom 2 x 29.5
  1 settings made for x
  run 0 pre yes post no # force neighborlist rebuild
WARNING: No fixes defined, atoms won't move (src/verlet.cpp:52)
Per MPI rank memory allocation (min/avg/max) = 7.073 | 7.073 | 7.073 Mbytes
Step Temp PotEng TotEng Press Volume E_bond E_angle E_dihed E_impro E_vdwl E_coul E_long E_tail v_e2body v_ecoul_tot 
     291            0         8064         8064    2.4082963        27000            0            0            0            0         8064            0            0            0         8064            0 
Loop time of 2e-06 on 1 procs for 0 steps with 2 atoms


next i
jump SELF loop

  reset_timestep $i
  reset_timestep 292
  set atom 2 x ${x2}
  set atom 2 x 29.6
  1 settings made for x
  run 0 pre yes post no # force neighborlist rebuild
WARNING: No fixes defined, atoms won't move (src/verlet.cpp:52)
Per MPI rank memory allocation (min/avg/max) = 7.073 | 7.073 | 7.073 Mbytes
Step Temp PotEng TotEng Press Volume E_bond E_angle E_dihed E_impro E_vdwl E_coul E_long E_tail v_e2body v_ecoul_tot 
     292            0    118721.01    118721.01    35.248933        27000            0            0            0            0    118721.01            0            0            0    118721.01            0 
Loop time of 3.2e-06 on 1 procs for 0 steps with 2 atoms


next i
jump SELF loop

Total wall time: 0:00:01
